/*--------------------------------*- C++ -*----------------------------------*\
| =========                 |                                                 |
| \\      /  F ield         | foam-extend: Open Source CFD                    |
|  \\    /   O peration     | Version:     3.2                                |
|   \\  /    A nd           | Web:         http://www.foam-extend.org         |
|    \\/     M anipulation  | For copyright notice see file Copyright         |
\*---------------------------------------------------------------------------*/
FoamFile
{
    version     2.0;
    format      ascii;
    class       volScalarField;
    location    "0";
    object      epsilon;
}
// * * * * * * * * * * * * * * * * * * * * * * * * * * * * * * * * * * * * * //

dimensions      [0 2 -3 0 0 0 0];

internalField   nonuniform List<scalar> 
57344
(
0.001988619845
0.002036712219
0.002130492173
0.002266851554
0.002443501572
0.002658505968
0.002910390563
0.00319777943
0.003519088845
0.003871823102
0.004253226619
0.004658285641
0.005080228512
0.005507248407
0.005911044172
0.006162759952
0.00647544192
0.006895419624
0.007377956858
0.007910068396
0.008487733761
0.009111935414
0.00978044584
0.01049270224
0.01124999974
0.0120578774
0.01291485266
0.0138237101
0.01479050325
0.01581963116
0.01691284862
0.01807657469
0.01932196965
0.02064999335
0.02206810371
0.02359527543
0.02523222903
0.02699178151
0.02889793503
0.03095476868
0.03318949519
0.03562313048
0.03827475508
0.04119401728
0.04439207631
0.04794859474
0.05188233178
0.05630077888
0.06125521122
0.06687715335
0.07330818324
0.08071326034
0.08935023435
0.0995928524
0.1118845314
0.1269265341
0.1457708371
0.1700614797
0.2024612582
0.2476938397
0.3135486767
0.4084695111
0.5083857528
0.5491808703
0.005998558549
0.006143626455
0.006426508347
0.006837828657
0.00737068338
0.0080192319
0.00877902744
0.009645919598
0.01061513115
0.01167913396
0.01282961595
0.01405145343
0.01532422008
0.01661230128
0.01783032822
0.01858961454
0.0195328019
0.02079964073
0.02225518682
0.02386027099
0.02560276567
0.02748563442
0.02950215806
0.03165063895
0.03393498373
0.0363719007
0.03895691779
0.04169843452
0.04461471101
0.04771901675
0.05101664498
0.05452695842
0.05828362141
0.06228952932
0.06656717848
0.07117380501
0.07611158237
0.08141917223
0.08716897582
0.09337329742
0.1001142227
0.107455145
0.1154536197
0.1242594079
0.1339061709
0.1446342063
0.1565001001
0.1698280942
0.1847728573
0.2017311257
0.2211299612
0.2434669547
0.2695198951
0.3004161693
0.3374933192
0.3828666639
0.4397094312
0.5129807718
0.6107128589
0.7471543658
0.9458017326
1.232125025
1.53351668
1.65657283
0.01007443295
0.01031807097
0.01079316421
0.01148396665
0.01237888318
0.01346810462
0.01474416272
0.01620008698
0.01782785418
0.01961482097
0.02154702745
0.02359907373
0.02573665432
0.02789995531
0.02994560188
0.03122080476
0.03280486495
0.03493248991
0.03737704411
0.04007274386
0.04299922124
0.04616145343
0.04954815576
0.05315647708
0.05699297849
0.06108572117
0.06542719441
0.07003150496
0.07492932028
0.08014292616
0.08568121243
0.09157669833
0.09788592232
0.1046137471
0.1117979546
0.1195346717
0.1278275484
0.1367415163
0.1463981714
0.1568181784
0.1681393982
0.1804682984
0.1939015417
0.2086906485
0.2248921519
0.242909626
0.2628381056
0.285222147
0.3103215126
0.3388025112
0.3713823829
0.4088968193
0.452652098
0.5045416379
0.5668118079
0.643015235
0.7384812779
0.8615387096
1.025677369
1.254827556
1.588450969
2.069323964
2.575503907
2.782173712
0.01421732724
0.01456115615
0.0152316213
0.01620650141
0.01746943315
0.01900657353
0.02080738313
0.02286202498
0.0251591765
0.02768099502
0.03040777995
0.03330368621
0.03632030092
0.03937321301
0.04226008782
0.04405969051
0.04629516144
0.04929772648
0.05274755113
0.05655179954
0.06068172791
0.06514436021
0.06992377117
0.07501593718
0.08043011743
0.08620591268
0.09233272358
0.09883045801
0.1057423947
0.1130999841
0.1209157717
0.1292356497
0.1381394066
0.1476339048
0.1577724635
0.1686907393
0.1803938837
0.1929735295
0.2066012766
0.2213062878
0.2372831162
0.254682012
0.2736393882
0.2945101977
0.3173742217
0.3428009952
0.3709246342
0.4025136322
0.437934573
0.4781277709
0.5241054154
0.5770468585
0.6387955563
0.7120235555
0.7999009962
0.9074414468
1.04216585
1.215828009
1.447465169
1.770848451
2.241667331
2.920289023
3.6346246
3.926282926
0.01842834342
0.01887401068
0.01974306024
0.02100668914
0.02264368738
0.02463611186
0.02697030148
0.02963350569
0.03261104826
0.03587980173
0.0394142304
0.04316787229
0.04707797514
0.05103512627
0.05477706169
0.05710968693
0.0600072798
0.06389917163
0.06837079645
0.07330182145
0.07865498925
0.08443940423
0.09063442422
0.09723483387
0.1042526348
0.1117391572
0.1196806622
0.1281029542
0.1370621307
0.1465989572
0.1567296953
0.1675138297
0.1790547816
0.1913614459
0.2045029344
0.2186550836
0.2338245708
0.2501301695
0.2677943057
0.2868547796
0.3075637692
0.3301160267
0.3546883696
0.3817408837
0.4113769804
0.4443348849
0.480788437
0.5217337492
0.5676459837
0.6197439653
0.6793396832
0.7479618003
0.8279997841
0.9229171125
1.036822886
1.176215637
1.350843929
1.575942912
1.876188454
2.295354313
2.905624575
3.785246558
4.711160488
5.089204806
0.02270860162
0.02325778177
0.02432868108
0.02588580668
0.02790302224
0.03035821707
0.03323455713
0.03651633032
0.04018545166
0.04421342198
0.04856877454
0.05319425586
0.05801253855
0.06288879717
0.06749985302
0.07037426534
0.07394486746
0.07874070935
0.08425093588
0.09032726513
0.09692378617
0.104051718
0.111685624
0.1198190774
0.1284668676
0.1376922467
0.1474782849
0.1578567801
0.1688968592
0.1806487563
0.1931325097
0.2064214205
0.220642931
0.2358080021
0.2520017976
0.269440995
0.2881338223
0.3082266401
0.3299935359
0.3534810899
0.3790000517
0.4067904082
0.437070045
0.4704059098
0.506925433
0.5475383035
0.5924587378
0.6429142109
0.699490248
0.7636887647
0.8371264788
0.9216871083
1.02031511
1.137278407
1.277640499
1.4494093
1.664597623
1.941979209
2.311961267
2.828484661
3.580499313
4.664426649
5.805397929
6.271248691
0.02705924041
0.02771363551
0.0289897036
0.03084515188
0.03324883669
0.03617441126
0.03960181636
0.04351232971
0.04788440149
0.05268407252
0.05787384747
0.06338550395
0.06912689973
0.0749373788
0.08043184609
0.08385695413
0.08811163184
0.0938262875
0.1003921935
0.1076326594
0.1154929782
0.1239865184
0.13308297
0.1427746752
0.1530792566
0.1640720845
0.1757329858
0.1880998502
0.2012550484
0.2152584385
0.2301338981
0.2459687715
0.2629149171
0.2809853959
0.3002816879
0.3210619827
0.3433360846
0.3672783949
0.3932155124
0.4212029411
0.451610966
0.4847255518
0.520806328
0.5605288611
0.6040449954
0.6524387029
0.7059652411
0.7660872512
0.8335024367
0.9100004582
0.9975077735
1.098268993
1.21579269
1.355164459
1.522417892
1.727095104
1.98351039
2.314034266
2.754899521
3.370381308
4.266471063
5.55806316
6.917627992
7.472729005
0.03148141706
0.03224275717
0.03372736764
0.03588604395
0.03868255275
0.04208624153
0.04607377288
0.05062336481
0.05570994569
0.06129400656
0.06733192437
0.07374432744
0.08042401513
0.08718407609
0.09357648082
0.0975613397
0.1025113413
0.1091599188
0.116798863
0.1252226074
0.1343675047
0.144249108
0.1548321542
0.1661077335
0.1780963488
0.1908856879
0.2044522807
0.2188402092
0.2341453055
0.2504372102
0.2677437028
0.2861664023
0.3058819845
0.3269056449
0.3493554478
0.3735317778
0.3994460416
0.4273011419
0.4574770522
0.4900383474
0.5254158266
0.5639421884
0.6059194925
0.6521337103
0.7027615015
0.7590639869
0.8213381398
0.8912856344
0.9697181971
1.058717965
1.160526229
1.277754427
1.414484522
1.576633226
1.771220177
2.009346916
2.307667063
2.692207051
3.20512104
3.9211884
4.963722294
6.466393797
8.048146531
8.693965343
0.03597630786
0.03684635148
0.03854293342
0.04100982375
0.04420561577
0.04809528043
0.05265214822
0.05785132714
0.06366416586
0.07004551434
0.07694552108
0.08427348177
0.09190688977
0.09963214667
0.1069372537
0.1114910674
0.1171478262
0.1247456822
0.1334753084
0.1431017881
0.1535523863
0.1648448769
0.1769389616
0.1898244589
0.2035247988
0.2181401892
0.233643809
0.250086034
0.2675763794
0.2861944288
0.3059719282
0.3270250055
0.3495555624
0.3735809636
0.3992361309
0.4268643374
0.4564786184
0.488310847
0.5227952489
0.560005619
0.6004342656
0.6444613896
0.6924321786
0.7452448244
0.8031012099
0.8674425178
0.9386081229
1.018542663
1.108173763
1.209880844
1.326225208
1.460191151
1.616443457
1.801743619
2.024113535
2.296239814
2.637153865
3.076598156
3.662745582
4.48105245
5.672438474
7.389660178
9.197254264
9.935282554
0.04054510845
0.04152564301
0.04343768187
0.04621785421
0.0498194949
0.05420312637
0.05933869224
0.06519813935
0.0717491778
0.07894092375
0.08671719481
0.09497576771
0.1035785781
0.1122849017
0.1205177186
0.1256498426
0.1320249798
0.1405877232
0.1504259658
0.1612749575
0.1730527263
0.1857793034
0.1994092728
0.21393116
0.2293713706
0.2458428381
0.2633153355
0.2818456361
0.3015571627
0.3225396058
0.3448287429
0.3685554495
0.3939472678
0.4210237678
0.4499370055
0.4810738479
0.5144489858
0.5503237388
0.5891874772
0.6311233673
0.6766862379
0.7263045735
0.7803673987
0.8398869708
0.9050908109
0.9776031243
1.057806384
1.147892188
1.248905962
1.363529305
1.494648787
1.645627696
1.821723217
2.030555518
2.281165236
2.587850111
2.972058442
3.467309831
4.127894876
5.050122383
6.392808124
8.32810789
10.36525685
11.19701083
0.04518903415
0.04628187645
0.048412915
0.05151152067
0.05552568342
0.06041140405
0.06613518357
0.0726657557
0.07996713216
0.08798260099
0.09664954485
0.1058540321
0.1154421848
0.1251457069
0.1343214881
0.1400414315
0.1471467595
0.1566902561
0.1676553441
0.1797469495
0.1928737117
0.2070579561
0.2222490649
0.2384342493
0.2556429393
0.2740010036
0.293474753
0.3141274635
0.3360966944
0.359482409
0.3843244829
0.4107687815
0.4390689091
0.4692466773
0.5014715581
0.5361747291
0.5733725639
0.6133563129
0.6566713975
0.7034105096
0.7541920266
0.8094935106
0.8697485437
0.9360853246
1.008757434
1.089575109
1.178964631
1.279368616
1.391952232
1.519704218
1.665841766
1.834113386
2.030378406
2.263129787
2.542443655
2.884255377
3.312469877
3.864446004
4.600692652
5.628549572
7.125022861
9.281986563
11.55246499
12.47948579
0.04990932024
0.05111631697
0.05346995624
0.05689223125
0.0613256992
0.06672176485
0.07304343006
0.08025616258
0.0883202149
0.09717295116
0.1067452132
0.1169111685
0.1275008656
0.1382179832
0.1483522339
0.1546696623
0.1625171876
0.173057564
0.1851680261
0.1985226777
0.2130206149
0.2286864951
0.2454644132
0.2633402445
0.2823464932
0.3026221758
0.3241300839
0.3469401031
0.3712041619
0.3970326653
0.424469654
0.4536762302
0.4849324887
0.5182625194
0.5538534968
0.5921816379
0.6332650265
0.677425336
0.7252649605
0.7768862743
0.8329722484
0.894050329
0.960599389
1.033865475
1.114128654
1.203388257
1.302115091
1.41300692
1.53735062
1.678447125
1.839849683
2.025698359
2.242464526
2.499528291
2.808018294
3.185534454
3.658478721
4.268112315
5.081264674
6.216487879
7.869277455
10.25154993
12.75919447
13.78304857
0.05470722232
0.05603025052
0.05861015075
0.06236141724
0.06722108503
0.07313588736
0.08006526934
0.08797137905
0.09681064796
0.1065144189
0.1170068853
0.1281501182
0.1397578282
0.1515052078
0.1626136883
0.1695384261
0.1781403527
0.1896940007
0.2029686704
0.2176071366
0.2334987951
0.2506706737
0.2690614931
0.2886557708
0.3094891355
0.3317139678
0.3552894825
0.3802922833
0.406888904
0.435200363
0.465274935
0.497289209
0.5315502062
0.5680843323
0.6070967554
0.6491094722
0.694142305
0.7425478504
0.7949864122
0.8515702062
0.9130478587
0.979997521
1.052944101
1.13325343
1.221232501
1.319072843
1.427290523
1.548842648
1.685139805
1.839800254
2.016718825
2.220433577
2.458037993
2.739813911
3.077959795
3.491767485
4.010177013
4.678416139
5.569738775
6.814093696
8.62576988
11.23705589
13.98576629
15.10804593
0.05958401663
0.06102498422
0.06383486584
0.06792053342
0.0732134091
0.07965547772
0.08720256919
0.09581345735
0.1054406898
0.116009489
0.1274372908
0.1395738706
0.1522163328
0.1650109152
0.1771096447
0.184651678
0.1940204106
0.2066039914
0.221062012
0.2370054025
0.2543136994
0.2730163397
0.2930465815
0.314387562
0.3370780861
0.3612841182
0.3869612372
0.4141928757
0.4431604128
0.4739956549
0.50675118
0.5416193191
0.5789344621
0.6187253688
0.6612154965
0.7069733748
0.7560205927
0.8087411788
0.8658542986
0.927482171
0.9944401579
1.067357949
1.146807243
1.234275629
1.330097464
1.436659638
1.554524223
1.686911932
1.835359097
2.003806523
2.196496238
2.41837084
2.67715615
2.984050565
3.352339962
3.803035926
4.367658304
5.095466617
6.066244889
7.421525987
9.394701361
12.2387666
15.23250671
16.45483031
0.0645410004
0.06610184667
0.06914549128
0.07357105853
0.07930426537
0.08628227016
0.09445722816
0.1037844835
0.114212636
0.1256606872
0.1380392042
0.1511854647
0.1648796934
0.1787386978
0.1918439591
0.2000134382
0.2101615854
0.2237920343
0.2394528635
0.2567226354
0.2754708645
0.2957294369
0.3174260582
0.3405424628
0.3651206837
0.3913404926
0.4191537727
0.4486508978
0.4800283364
0.5134288603
0.5489094217
0.5866783522
0.6270978606
0.6701990993
0.7162241158
0.7657887374
0.8189163494
0.8760229286
0.9378874704
1.004642361
1.077170796
1.15615485
1.242213784
1.336958942
1.440752501
1.55617992
1.683850035
1.827251498
1.988048455
2.170509558
2.379229743
2.619562799
2.899877281
3.232303218
3.631231782
4.119422575
4.731017684
5.519374684
6.570915088
8.038946329
10.17627643
13.2569485
16.49974738
17.82375996
0.0695794922
0.07126218832
0.07454343969
0.07931449561
0.085495274
0.0930180274
0.101831176
0.1118865777
0.1231288199
0.1354705807
0.1488154456
0.162987989
0.1777512786
0.1926922073
0.2068205509
0.2156277928
0.2265681707
0.2412627014
0.2581461172
0.2767640801
0.2969759184
0.3188160072
0.3422064084
0.3671274304
0.3936243877
0.4218910861
0.4518756524
0.4836755156
0.5175024819
0.5535104687
0.5917608743
0.6324782941
0.6760532132
0.7225192159
0.7721372457
0.8255712052
0.8828463053
0.9444109969
1.011105089
1.083071302
1.16126178
1.246411845
1.339189101
1.441330685
1.553227046
1.677665483
1.81530236
1.969898678
2.143248495
2.339953702
2.564967948
2.824062971
3.126260631
3.484637907
3.914709438
4.441011592
5.100351807
5.950253102
7.083883613
8.666518956
10.970703
14.29187244
17.78782536
19.21519901
0.07470083227
0.07650738182
0.08003014694
0.08515237242
0.09178808182
0.09986454115
0.1093263741
0.1201218953
0.1321916133
0.145441779
0.1597688814
0.174984583
0.1908345121
0.2068751554
0.2220434037
0.2314988954
0.2432445305
0.2590206398
0.2771467452
0.2971350677
0.3188345814
0.3422821916
0.3673942236
0.3941495365
0.4225967801
0.452944025
0.4851355801
0.5192760456
0.5555928173
0.5942511417
0.6353169363
0.6790313275
0.7258135419
0.7756996358
0.8289697589
0.8863366801
0.9478274659
1.013923575
1.085526629
1.162789856
1.246735478
1.338152941
1.437758989
1.547418619
1.667551017
1.801148642
1.948916165
2.114891415
2.3010005
2.512184029
2.753760258
3.031925753
3.356366419
3.741121753
4.202848338
4.767888519
5.475758917
6.388216482
7.605286915
9.304410802
11.77819238
15.3438137
19.0970833
20.62951759
0.07990638287
0.08183882239
0.08560707249
0.09108624183
0.09818436269
0.1068236326
0.1169448163
0.1284926267
0.1414034267
0.1555769344
0.1709024253
0.1871784377
0.2041328741
0.2212913145
0.237516567
0.2476309675
0.2601951009
0.2770705732
0.2964598019
0.3178410168
0.3410526678
0.366134232
0.3929962037
0.4216159688
0.4520455674
0.4845075695
0.5189424031
0.5554619575
0.5943094746
0.6356617164
0.6795891935
0.7263498356
0.7763920831
0.8297545048
0.886736773
0.9481013258
1.013877116
1.084579153
1.161171888
1.243819226
1.333614625
1.431402543
1.537949669
1.655250964
1.783754826
1.926662242
2.084726991
2.262268278
2.461346432
2.68724635
2.945656894
3.243206437
3.590255851
4.001822979
4.495725124
5.100140305
5.857338871
6.833381323
8.135263686
9.952791547
12.59895936
16.41305211
20.42786946
22.0670919
0.0851975287
0.0872579282
0.0912756998
0.09711768227
0.104685818
0.1138971529
0.1246885291
0.1370009987
0.1507667107
0.1658787428
0.1822190389
0.1995727969
0.217649902
0.2359445196
0.2532441566
0.2640283004
0.2774243906
0.2954173029
0.3160904245
0.3388874353
0.3636360878
0.3903784731
0.4190191589
0.4495340336
0.4819785831
0.5165901155
0.553305114
0.5922428767
0.6336627525
0.6777532079
0.7245894225
0.7744464052
0.8278022907
0.8846982018
0.945453654
1.010881572
1.081012825
1.156396525
1.238060987
1.326180969
1.421922332
1.526185454
1.639787791
1.764856404
1.901869382
2.054239671
2.222770964
2.412068468
2.624328942
2.865187233
3.140708899
3.457961223
3.827991143
4.266810934
4.793417703
5.437855331
6.24519317
7.285866041
8.673954901
10.61183366
13.43322226
17.49987207
21.78053783
23.52830435
0.09057567721
0.09276614075
0.09703753676
0.1032482981
0.1112941773
0.1210869835
0.1325595723
0.1456492744
0.1602839558
0.1763499446
0.1937217323
0.2121709574
0.2313891913
0.2508386684
0.269230356
0.2806952558
0.2949369828
0.3140657092
0.3360438348
0.3602799215
0.3865908485
0.415021364
0.4454700115
0.4779111572
0.5124037896
0.5492001971
0.5882328534
0.6296285873
0.6736631193
0.7205368128
0.7703295935
0.8233338301
0.88005784
0.9405453419
1.005136021
1.074694118
1.149252451
1.229394796
1.316214379
1.409896991
1.511682089
1.622526887
1.743300445
1.876264094
2.021926103
2.183914864
2.363084803
2.564331834
2.789991386
3.04605401
3.338968158
3.676247238
4.069635533
4.536156105
5.096005263
5.781123428
6.639424985
7.745790997
9.221503855
11.28171245
14.28120302
18.60456269
23.15544821
25.01354361
0.096042259
0.09836492523
0.102894116
0.1094797201
0.1180111983
0.1283950371
0.1405600396
0.1544397543
0.1699576936
0.1869933251
0.2054135653
0.2249762704
0.2453543968
0.2659777227
0.2854794176
0.2976362671
0.3127375358
0.3330207525
0.3563253404
0.3820241658
0.409923056
0.4400694597
0.4723557972
0.5067548877
0.5433292799
0.5823464885
0.623734912
0.6676290337
0.7143212148
0.7640239116
0.8168218732
0.8730251143
0.933172631
0.9973107804
1.065799749
1.139555938
1.218614147
1.303593382
1.395652853
1.494989562
1.602917772
1.72045247
1.848515165
1.989503668
2.143956926
2.315722316
2.505705833
2.719098876
2.958377829
3.229894793
3.540487408
3.898122546
4.315253299
4.809930136
5.403568292
6.130035907
7.040139181
8.213278531
9.778056194
11.9626061
15.14312717
19.72741782
24.55296635
26.52320478
0.1015987282
0.1040557709
0.1088469954
0.1158136058
0.1248386677
0.1358232574
0.1486920592
0.1633747767
0.1797904973
0.1978117154
0.217297648
0.237992142
0.2595492331
0.2813657096
0.3019956637
0.3148558407
0.3308307845
0.352287475
0.3769403363
0.4041259524
0.4336389166
0.4655294231
0.4996836679
0.5360728978
0.5747632802
0.6160378068
0.6598207335
0.7062543242
0.7556478544
0.8082260718
0.8640786289
0.9235334759
0.9871607923
1.055009617
1.127460975
1.205484286
1.289116361
1.379012021
1.476397539
1.581481315
1.69565365
1.819988249
1.955459937
2.104605249
2.26799431
2.449697088
2.65067199
2.876410765
3.129533062
3.416758482
3.745320253
4.123646164
4.564909776
5.088205855
5.716188601
6.484685578
7.44744235
8.688452997
10.34375996
12.65469574
16.01922401
20.86873614
25.97346398
28.0576894
0.1072465628
0.1098401916
0.1148977584
0.12225164
0.1317784016
0.1433736206
0.156957794
0.1724567182
0.1897849826
0.2088079933
0.2293771414
0.2512220345
0.273977476
0.2970067221
0.3187834876
0.3323585569
0.3492215417
0.3718710014
0.3978943059
0.42659116
0.4577447387
0.4914080263
0.5274608925
0.5658729859
0.6067141519
0.6502831137
0.6964999166
0.7455147329
0.7976540306
0.8531550511
0.9121124306
0.9748723498
1.042036684
1.1136572
1.190136101
1.272496698
1.360777848
1.455670774
1.558469916
1.669395259
1.789914391
1.921160702
2.06416321
2.221599452
2.39407125
2.585874815
2.798021836
3.036309343
3.303502612
3.606694784
3.953521178
4.352878083
4.81867137
5.371057279
6.033949346
6.845166778
7.861442832
9.171440787
10.91876564
13.35816546
16.90972657
22.02882122
27.41731894
29.61740566
0.112987265
0.1157197258
0.1210480144
0.1287955352
0.1388322461
0.1510481348
0.1653594429
0.1816879947
0.1999438077
0.2199850836
0.2416552587
0.2646694669
0.2886429635
0.3129049209
0.3358473547
0.3501490713
0.3679146993
0.3917765411
0.419192823
0.4494257645
0.4822469343
0.5177121529
0.5556948598
0.5961630787
0.6391903938
0.6850915183
0.7337822178
0.785420703
0.840350917
0.8988228004
0.960936055
1.027055392
1.097814904
1.173269128
1.253841798
1.340610999
1.43361767
1.533590031
1.641891814
1.758754777
1.885725066
2.023996741
2.174653897
2.340517399
2.52222128
2.724291722
2.947794564
3.198837143
3.480332755
3.79975422
4.165145564
4.585879276
5.076605583
5.658559646
6.356935052
7.211575393
8.282250749
9.662370376
11.50322617
14.07320236
17.81487172
23.20798166
28.8849153
31.20276843
0.1188223621
0.1216959377
0.1272993996
0.1354470322
0.1460020774
0.1588488416
0.1738992408
0.1910710618
0.2102696752
0.2313459597
0.254135266
0.2783380164
0.3035495966
0.3290645348
0.3531918042
0.3682321165
0.3869152299
0.412009389
0.4408415532
0.4726358401
0.5071520214
0.5444488004
0.5843930804
0.6269512337
0.6722006449
0.7204722802
0.7716775547
0.8259828499
0.8837498715
0.945241468
1.01056249
1.080096484
1.15451029
1.23386126
1.318595013
1.409845309
1.507655202
1.612790521
1.726685424
1.84958364
1.983111164
2.128523719
2.286961391
2.461390722
2.652478491
2.864984628
3.100030017
3.3640374
3.660070528
3.995988148
4.380249706
4.822711726
5.338781027
5.950789437
6.685231636
7.584008892
8.709978043
10.16137236
12.09729702
14.79999668
18.73490023
24.40653113
30.37664346
32.81419945
0.1247534061
0.1277704168
0.1336535768
0.1422079001
0.1532898028
0.1667778159
0.1825794591
0.2006084153
0.2207653316
0.2428936435
0.2668204829
0.2922313189
0.3187013405
0.3454898624
0.3708214497
0.3866125024
0.4062281875
0.4325749269
0.4628462549
0.4962275605
0.5324666245
0.5716250803
0.6135631877
0.6582456404
0.7057536858
0.7564348102
0.8101960071
0.8672119629
0.9278624379
0.9924234007
1.061004936
1.134009734
1.212137921
1.295449712
1.384412969
1.480218043
1.582910138
1.693293309
1.812873301
1.941906009
2.082098587
2.234769442
2.401115565
2.584251574
2.78487753
3.007990956
3.254768687
3.531954056
3.842763742
4.195448762
4.59889082
5.063438427
5.605267439
6.247824382
7.018926422
7.96256634
9.144738485
10.66857946
12.70113623
15.53874172
19.67005684
25.62478842
31.8929002
34.45212732
0.1307819746
0.133944779
0.1401122361
0.1490799375
0.1606973607
0.174837167
0.1914024068
0.2103025921
0.2314335689
0.2546312066
0.2797142837
0.3063530698
0.3341022256
0.3621852728
0.3887409806
0.4052951183
0.4258587093
0.4534786254
0.4852127814
0.5202072012
0.5581974774
0.5992482216
0.643212941
0.6900546233
0.7398584417
0.7929886746
0.8493478211
0.9091190091
0.9727003503
1.040381149
1.11227681
1.188809484
1.270713128
1.358050867
1.451313174
1.551747921
1.659402497
1.775119811
1.900478371
2.03574644
2.182713668
2.342762171
2.517146783
2.709132635
2.919453615
3.153348748
3.412051736
3.702631777
4.028460993
4.398189121
4.821127064
5.308123414
5.876135706
6.549743493
7.358108174
8.347348434
9.586647723
11.18412661
13.3149044
16.289634
20.62059029
26.8630776
33.43408886
36.11698776
0.1369096713
0.1402206667
0.1466770956
0.1560649723
0.1682267216
0.1830290385
0.2003704309
0.220156171
0.2422772247
0.2665617713
0.2928200983
0.3207070258
0.3497563486
0.3791552071
0.4069551637
0.4242849339
0.4458120173
0.4747260451
0.5079470824
0.544581141
0.5843514246
0.6273255723
0.6733502275
0.7223866436
0.7745239847
0.830143597
0.8891434113
0.9517151359
1.018275536
1.089127471
1.164391752
1.244510309
1.330251491
1.421681378
1.519313424
1.62445397
1.737152625
1.858291791
1.989523939
2.131129897
2.28498317
2.452530632
2.635085912
2.836067124
3.056242545
3.301096669
3.571921002
3.876115965
4.217211678
4.604263156
5.047017556
5.556831775
6.15145788
6.856627082
7.702867118
8.738457529
10.03582331
11.70815093
13.93876481
17.05287326
21.58675343
28.12172806
35.00061939
37.80922363
0.1431381262
0.1465997492
0.1533499015
0.1631648625
0.1758798883
0.1913556095
0.2094859168
0.230171773
0.2532991835
0.278688511
0.3061414125
0.3352970048
0.3656678733
0.396404179
0.4254688438
0.4435870001
0.4660934189
0.4963228373
0.5310552049
0.5693558629
0.6109354228
0.6558646007
0.7039830633
0.7552503014
0.8097595353
0.86790946
0.9295933629
0.9950116736
1.064600117
1.138675331
1.217363623
1.301127027
1.390768847
1.48635817
1.588431807
1.69835553
1.816181203
1.942831374
2.080033688
2.22808175
2.388934296
2.564104023
2.754964321
2.965088806
3.195280704
3.451274018
3.734419009
4.052452765
4.409066002
4.813725678
5.27662238
5.809629663
6.431307193
7.168556778
8.053294955
9.135997655
10.49238472
12.24079182
14.57288339
17.8286625
22.56880326
29.40107459
36.59290849
39.52928504
0.1494689959
0.1530837233
0.1601324288
0.1703814967
0.1836588965
0.1998190949
0.2187512893
0.2403520621
0.264502377
0.2910146515
0.31968177
0.3501268877
0.3818410323
0.413936777
0.4442869456
0.4632064515
0.4867083088
0.518274747
0.5545432958
0.5945379572
0.6379565433
0.6848728981
0.7351195968
0.7886543383
0.8455744663
0.9062963096
0.9707084357
1.039020139
1.111686416
1.18903791
1.271206513
1.358674698
1.452281294
1.552098446
1.658686707
1.773472257
1.896509253
2.028761046
2.172031694
2.326627788
2.494594696
2.677512022
2.876813898
3.096231999
3.336605077
3.603920743
3.89958898
4.231689081
4.604074999
5.026632406
5.51000261
6.066584322
6.715758087
7.485615553
8.409484899
9.540074559
10.95645339
12.78219096
15.21742883
18.6172081
23.56700099
30.7014575
38.2113797
41.27762952
0.1559039646
0.159674314
0.1670264817
0.1777167944
0.1915658155
0.208421746
0.2281690129
0.2506997464
0.2758897855
0.3035434717
0.3334447726
0.3652006195
0.3982801277
0.4317576647
0.4634144747
0.4831485069
0.5076621708
0.5405876136
0.5784176031
0.6201341225
0.6654219742
0.7143581812
0.7667681106
0.8226076404
0.881978305
0.945314357
1.012499567
1.083752239
1.159546959
1.240228604
1.325934747
1.417168629
1.514805194
1.618919694
1.730096814
1.849824134
1.978158143
2.116103667
2.265542431
2.426794226
2.601992479
2.792784797
3.000667057
3.229531589
3.480253256
3.759077449
4.067474854
4.413872594
4.802290544
5.243039976
5.747220328
6.327764106
7.004886228
7.80788775
8.771531701
9.95079573
11.42815278
13.33249237
15.87257258
19.41871982
24.58161217
32.0232227
39.85646355
43.05472216
0.1624447439
0.1663732741
0.174033894
0.185172707
0.1996027486
0.217165851
0.2377415928
0.2612175784
0.2874644379
0.3162783041
0.3474340811
0.3805222097
0.4149895322
0.4498715825
0.4828565192
0.503418471
0.5289605786
0.5632673722
0.6026844772
0.6461511674
0.693339021
0.7443282927
0.798937023
0.8571192389
0.9189807344
0.9849739807
1.054977872
1.129219872
1.208194476
1.292261031
1.38156288
1.476624379
1.578357179
1.686839689
1.802681122
1.92743147
2.061149592
2.204882468
2.360590771
2.528607708
2.711156211
2.909953011
3.126556742
3.365023034
3.626263452
3.916785407
4.238121286
4.599051762
5.00376536
5.463005949
5.988338634
6.593238487
7.298768523
8.13545909
9.139531662
10.36827042
11.90760836
13.89184242
16.53848889
20.23341084
25.61290666
33.36672178
41.52859763
44.86103566
0.1690930736
0.1731823857
0.1811565296
0.1927512177
0.2077718334
0.2260537359
0.2474715753
0.2719083559
0.2992294131
0.3292225362
0.3616534169
0.3960957338
0.4319736907
0.4682833486
0.5026182504
0.5240217354
0.5506091976
0.5863200555
0.6273503732
0.6725960122
0.7217151097
0.7747912048
0.8316348911
0.8921983139
0.9565915972
1.02528573
1.098154651
1.175435132
1.257641907
1.34514903
1.438105711
1.537057765
1.642954154
1.755876496
1.876458939
2.006314909
2.145505674
2.295121065
2.457201997
2.632095316
2.822114929
3.029047829
3.25451644
3.502742373
3.774674504
4.077086569
4.411573669
4.787275844
5.20855304
5.686588838
6.233421664
6.863078082
7.597483144
8.468416708
9.513582672
10.79260967
12.39494766
14.46038989
17.21535492
21.06149789
26.6611588
34.7323121
43.22822672
46.6970505
0.1758507224
0.1801034601
0.1883962832
0.2004543423
0.2160752431
0.235087765
0.2573615485
0.2827749226
0.3111878406
0.3423796112
0.3761065621
0.4119253345
0.4492371208
0.4869978608
0.5227049253
0.5449637808
0.5726137864
0.6097517958
0.6524218523
0.6994756915
0.7505577885
0.8057550207
0.8648704126
0.9278541967
0.9948208982
1.066260329
1.142041389
1.222410313
1.307902406
1.398906671
1.495578279
1.598484861
1.708613302
1.826048481
1.95144989
2.086495435
2.23124883
2.386843462
2.555401809
2.737284577
2.934898149
3.150100932
3.384580188
3.642726242
3.92552589
4.240023573
4.587878142
4.978594908
5.416708059
5.913848117
6.482534612
7.137354668
7.901109551
8.806849172
9.89378423
11.22392636
12.89030031
15.03828604
17.9033507
21.90320123
27.72664742
36.12035692
44.95580294
48.56325505
0.1827194876
0.1871383381
0.1957550806
0.20828413
0.2245151863
0.2442703412
0.2674141433
0.2938201689
0.3233429014
0.3557530289
0.3907973614
0.4280152223
0.4667844147
0.5060200969
0.5431218866
0.5662501776
0.5949801981
0.6335688257
0.6779055834
0.7267973552
0.7798747293
0.8372279767
0.8986524278
0.9640963715
1.033678806
1.107908676
1.186649759
1.27015791
1.358989342
1.453548251
1.553995873
1.660922006
1.775352087
1.897374308
2.027673922
2.167994373
2.318401865
2.480074056
2.655216327
2.844203473
3.049535872
3.273144519
3.516782583
3.785011874
4.078857734
4.405639761
4.767081601
5.173059844
5.628285784
6.144844234
6.73574374
7.416141201
8.209728507
9.150846502
10.28023747
11.66233522
13.39379807
15.62568457
18.60265924
22.75874475
28.80965594
37.53122545
46.7117858
50.46014573
0.1897011964
0.1942888911
0.2032348792
0.2162426634
0.2330939082
0.2536039072
0.2776320336
0.3050470331
0.3356978286
0.3693463466
0.4057297226
0.4443696774
0.48462024
0.525355117
0.5638745655
0.5878865881
0.6177143823
0.6577774808
0.7038083453
0.7545682709
0.8096737307
0.8692184448
0.9329899233
1.000934479
1.073175657
1.150241849
1.231991628
1.318690624
1.410916304
1.509088308
1.613374031
1.724385811
1.843188263
1.969872952
2.105151312
2.250833405
2.406987965
2.574837647
2.756672102
2.952880444
3.16605859
3.398211321
3.651158791
3.92963712
4.234710825
4.573979189
4.949231716
5.370722381
5.843342497
6.379638638
6.993116405
7.699511843
8.523422107
9.500500206
10.67304518
12.10795287
13.90557489
16.22274174
19.31346657
23.62835603
29.91047245
38.965293
48.49664241
52.38822712
0.1967977059