/*--------------------------------*- C++ -*----------------------------------*\
| =========                 |                                                 |
| \\      /  F ield         | foam-extend: Open Source CFD                    |
|  \\    /   O peration     | Version:     3.2                                |
|   \\  /    A nd           | Web:         http://www.foam-extend.org         |
|    \\/     M anipulation  | For copyright notice see file Copyright         |
\*---------------------------------------------------------------------------*/
FoamFile
{
    version     2.0;
    format      ascii;
    class       volScalarField;
    location    "0";
    object      k;
}
// * * * * * * * * * * * * * * * * * * * * * * * * * * * * * * * * * * * * * //

dimensions      [0 2 -2 0 0 0 0];

internalField   nonuniform List<scalar> 
57344
(
0.0001468998965
0.0001485031077
0.0001515789087
0.0001559342867
0.0001613865087
0.0001677574928
0.0001748864278
0.0001826216346
0.0001908189862
0.000199337192
0.0002080492755
0.0002168198785
0.0002255077277
0.0002339181987
0.0002415890963
0.0002462271901
0.0002517412249
0.0002587812928
0.0002663893266
0.0002742683427
0.0002822920919
0.0002903948982
0.0002985105513
0.0003065951206
0.000314623848
0.0003225878994
0.0003304634897
0.0003382438554
0.0003459315599
0.0003535273669
0.0003610273102
0.0003684397541
0.000375778616
0.0003830422133
0.0003902402245
0.0003973995815
0.000404518029
0.0004116123734
0.000418712686
0.000425823329
0.0004329754122
0.0004401924548
0.0004474952166
0.0004549390152
0.0004625327958
0.0004703607456
0.0004784401738
0.0004868807524
0.0004957306798
0.0005051195106
0.0005151815537
0.0005260703355
0.0005380228381
0.0005513727345
0.0005664981871
0.0005839600046
0.0006045564254
0.0006293898715
0.0006599305526
0.000697961121
0.0007433376151
0.0007813119103
0.0007100579719
0.0002004010544
0.0004431151746
0.0004479511699
0.0004572291484
0.0004703668984
0.0004868132154
0.0005060309263
0.000527534953
0.0005508677638
0.0005755946082
0.000601289291
0.0006275687949
0.0006540248195
0.0006802312221
0.0007056009292
0.000728739755
0.0007427303009
0.0007593630728
0.0007805990368
0.0008035482377
0.0008273148413
0.0008515180238
0.0008759596777
0.0009004400833
0.0009248267263
0.0009490449254
0.000973068033
0.0009968243031
0.001020293333
0.001043482856
0.001066395175
0.001089018328
0.001111377542
0.001133514802
0.001155425029
0.00117713742
0.001198733213
0.001220205605
0.001241605291
0.001263022979
0.001284471829
0.001306045681
0.001327815479
0.001349843844
0.001372297639
0.001395203846
0.001418816411
0.001443187546
0.001468648071
0.001495343373
0.001523664247
0.001554015827
0.001586861217
0.001622915261
0.001663184463
0.00170880953
0.001761482108
0.001823610039
0.001898518715
0.001990642941
0.002105359986
0.002242235597
0.002356782896
0.002141849448
0.0006044983715
0.0007442011411
0.0007523230773
0.0007679052162
0.0007899697473
0.0008175909361
0.0008498666134
0.0008859821024
0.0009251689897
0.0009666971224
0.001009850716
0.001053986503
0.001098418752
0.001142431766
0.001185039571
0.001223900666
0.001247397447
0.001275331782
0.001310997066
0.00134953969
0.001389455122
0.001430103777
0.00147115294
0.001512267184
0.001553223957
0.001593897833
0.001634244057
0.001674142133
0.001713557798
0.001752504037
0.001790984719
0.001828979752
0.001866531508
0.001903710496
0.001940508189
0.001976973621
0.002013243229
0.002049305588
0.002085245839
0.002121216325
0.002157239146
0.002193471905
0.002230033751
0.002267029853
0.002304740454
0.002343210871
0.002382867598
0.002423798326
0.002466558657
0.002511392767
0.002558956984
0.002609931724
0.002665094757
0.002725646644
0.002793277789
0.002869903977
0.002958366289
0.003062708636
0.003188515933
0.003343236326
0.003535900807
0.003765780061
0.003958159461
0.00359718397
0.001015240289
0.001050237885
0.001061699793
0.001083689752
0.001114827848
0.001153807657
0.001199356014
0.001250323223
0.001305624876
0.001364230562
0.001425130145
0.001487415826
0.001550119884
0.001612232306
0.001672361656
0.001727203541
0.001760362869
0.0017997846
0.001850116467
0.001904508917
0.001960838713
0.002018203256
0.002076133005
0.0021341546
0.002191953967
0.0022493541
0.002306291843
0.002362597147
0.002418221657
0.002473183701
0.002527488737
0.002581108412
0.002634102522
0.00268657057
0.002738500526
0.002789961583
0.002841146289
0.002892038518
0.002942758427
0.002993521003
0.003044357436
0.003095490138
0.003147087259
0.003199297214
0.00325251549
0.00330680604
0.003362770745
0.003420533356
0.003480877955
0.00354414913
0.003611273111
0.003683210118
0.003761057764
0.003846510316
0.003941953317
0.004050090379
0.004174930919
0.004322181815
0.004499724663
0.004718070496
0.00498996411
0.005314376272
0.005585867569
0.005076448657
0.001432736063
0.001361306811
0.001376163611
0.001404666754
0.001445027612
0.001495552813
0.001554592093
0.001620655229
0.001692336625
0.001768300671
0.001847238042
0.001927972058
0.002009248368
0.002089757808
0.002167696811
0.00223878226
0.002281763017
0.002332861031
0.002398100644
0.002468603541
0.002541617604
0.002615972894
0.002691060799
0.002766267753
0.002841186657
0.00291558808
0.002989390156
0.003062372474
0.003134472352
0.00320571355
0.003276103142
0.003345604375
0.003414294759
0.003482303266
0.003549614304
0.003616317562
0.003682662616
0.003748628564
0.003814371152
0.003880169046
0.003946062672
0.00401234032
0.00407921994
0.004146893911
0.004215874856
0.00428624567
0.004358786506
0.004433657768
0.004511875775
0.004593887177
0.004680892544
0.004774136502
0.004875041766
0.004985804425
0.005109516595
0.005249682668
0.005411499603
0.005602364598
0.005832493687
0.006115511158
0.006467936674
0.006888436156
0.007240340194
0.006580036995
0.00185709675
0.001677490666
0.001695798179
0.001730921603
0.001780656874
0.001842917308
0.001915669343
0.00199707663
0.002085407101
0.002179014933
0.002276286688
0.002375772386
0.002475926334
0.002575135295
0.002671176796
0.002758772903
0.002811736583
0.002874702875
0.002955095363
0.003041973612
0.003131946283
0.0032235717
0.003316099893
0.003408774787
0.003501094726
0.003592776991
0.003683720703
0.003773654254
0.003862500408
0.003950288438
0.004037027064
0.004122670998
0.004207315751
0.00429112025
0.004374065283
0.004456261369
0.004538016053
0.004619303579
0.004700315866
0.004781396305
0.00486259471
0.004944266332
0.005026679744
0.005110072006
0.005195074807
0.005281790294
0.005371179824
0.005463441055
0.005559826364
0.005660886139
0.005768099803
0.005883001064
0.006007343084
0.006143832026
0.006296278197
0.006468999935
0.006668401273
0.006903597515
0.007187177525
0.007535930034
0.007970211644
0.008488378415
0.008922017426
0.008108348939
0.002288435228
0.001998873553
0.00202068852
0.002062541084
0.002121804911
0.002195993542
0.002282683812
0.002379687554
0.002484940863
0.002596482598
0.00271239021
0.002830935925
0.002950277918
0.003068493877
0.003182935537
0.003287313789
0.003350424541
0.003425454262
0.003521248785
0.003624771646
0.003731981776
0.003841161295
0.003951416547
0.004061846607
0.004171853708
0.004281100966
0.004389468174
0.00449663169
0.004602499478
0.004707106423
0.004810462912
0.004912514981
0.005013376441
0.005113236668
0.005212072766
0.00531001643
0.005407434126
0.005504295163
0.00560082823
0.005697442505
0.005794197347
0.005891516067
0.005989718694
0.006089087705
0.006190375809
0.006293704726
0.006400219994
0.00651015714
0.006625008475
0.006745429839
0.006873184086
0.007010098763
0.00715826291
0.007320901154
0.007502553801
0.00770836652
0.007945970262
0.008226226695
0.008564136522
0.008979704954
0.009497188624
0.01011462864
0.01063134659
0.009661791022
0.002726866235
0.002325540962
0.002350921056
0.002399613406
0.002468562468
0.002554875432
0.002655733124
0.002768589776
0.002891044186
0.003020814712
0.003155664613
0.003293583751
0.003432429298
0.003569964788
0.003703109163
0.003824545508
0.003897970183
0.003985261692
0.004096711507
0.004217152669
0.004341883695
0.004468905958
0.004597179758
0.004725656933
0.004853642027
0.0049807431
0.005106820301
0.005231497094
0.005354666405
0.005476368818
0.005596616418
0.005715346424
0.005832691243
0.005948871202
0.006063859664
0.006177809845
0.006291148101
0.006403838726
0.006516147781
0.006628551316
0.006741118391
0.006854341496
0.006968592961
0.007084201427
0.007202042615
0.007322258138
0.007446180743
0.00757408445
0.007707705451
0.007847806766
0.007996439346
0.008155729407
0.008328107391
0.008517324912
0.008728664279
0.008968112095
0.009244546408
0.009570603958
0.009963736952
0.01044721997
0.01104927379
0.0117676194
0.01236878238
0.01124077646
0.003172506393
0.002657579785
0.002686583628
0.002742228232
0.002821021784
0.002919658442
0.003034916512
0.003163886744
0.003303825094
0.003452124149
0.003606227807
0.003763838926
0.003922508726
0.00407968142
0.004231836039
0.004370610966
0.004454519155
0.004554274074
0.004681636602
0.004819274254
0.004961814273
0.00510697267
0.005253561298
0.005400382338
0.005546641039
0.005691889498
0.005835967897
0.005978445941
0.006119201264
0.006258280247
0.006395696701
0.006531378879
0.006665478095
0.006798246133
0.006929652552
0.007059872446
0.007189393046
0.007318173545
0.007446517995
0.007574970414
0.007703609723
0.00783299873
0.007963562924
0.008095677872
0.008230344328
0.008367724125
0.008509340297
0.008655505989
0.008808205287
0.008968310152
0.00913816437
0.009320197735
0.009517187705
0.009733421548
0.009974935776
0.01024857175
0.01056447513
0.01093708691
0.01138635111
0.01193886543
0.01262688
0.01344779041
0.01413478694
0.01284572527
0.003625474243
0.002995078345
0.003027765523
0.003090476697
0.003179276613
0.003290439604
0.003420334839
0.003565683607
0.003723393386
0.003890525636
0.004064199643
0.004241826539
0.004420646564
0.004597779358
0.004769256808
0.004925655415
0.0050202195
0.005132642766
0.00527617966
0.005431296565
0.005591938411
0.005755531157
0.005920735764
0.006086202299
0.00625103508
0.006414729324
0.006577104917
0.006737676918
0.006896307422
0.007053048699
0.007207916315
0.007360829412
0.007511958518
0.007661587394
0.007809681732
0.007956438863
0.008102407893
0.008247542834
0.008392186349
0.008536951545
0.008681927365
0.008827748091
0.008974893246
0.009123786093
0.009275554476
0.009430380779
0.009589981456
0.009754709417
0.009926800717
0.01010723805
0.01029866286
0.01050381349
0.01072582015
0.01096951454
0.0112416998
0.0115500861
0.01190610753
0.01232603903
0.0128323574
0.01345503812
0.0142304269
0.01515558858
0.01592983003
0.01447706435
0.004085890274
0.003338126418
0.003374557495
0.003444451435
0.003543422251
0.003667317546
0.003812090626
0.003974087243
0.004149860669
0.004336135789
0.004529701941
0.004727673736
0.004926975316
0.005124396415
0.005315514423
0.005489826499
0.005595221695
0.005720521613
0.005880498831
0.006053382401
0.006232423725
0.006414753935
0.006598880625
0.006783299244
0.006967011521
0.007149454856
0.007330428505
0.007509391982
0.00768619159
0.007860885584
0.008033491313
0.008203918656
0.008372357676
0.008539124634
0.008704181293
0.008867747584
0.009030435506
0.009192193806
0.009353404393
0.009514750599
0.009676331552
0.009838854184
0.01000285294
0.01016879957
0.01033795109
0.01051051077
0.01068839167
0.01087198712
0.01106378929
0.01126489342
0.0114782435
0.01170689153
0.01195432622
0.0122259327
0.01252929331
0.01287300133
0.01326980048
0.01373782979
0.01430214048
0.01499614134
0.01586034103
0.01689146819
0.01775438914
0.01613522766
0.004553876957
0.003686815253
0.003727051792
0.003804246604
0.00391355556
0.004050392518
0.004210288079
0.004389206289
0.004583340382
0.00478907314
0.005002858526
0.005221509751
0.005441629667
0.005659672674
0.00587075419
0.006063274286
0.006179678691
0.006318066993
0.006494754863
0.006685697238
0.006883440582
0.007084816359
0.00728817627
0.007491858603
0.007694760811
0.007896261529
0.008096139043
0.008293796411
0.008489063878
0.008682005786
0.008872641297
0.009060870876
0.009246904438
0.00943109128
0.009613389171
0.009794041016
0.009973722742
0.01015237774
0.01033042781
0.01050862767
0.0106870868
0.01086658596
0.01104771545
0.01123099627
0.01141781676
0.01160840141
0.01180486312
0.0120076363
0.01221947344
0.0124415842
0.01267722007
0.01292975186
0.0132030327
0.01350301023
0.01383805881
0.01421766935
0.01465591674
0.01517283472
0.01579609131
0.01656258503
0.01751705595
0.018655891
0.01960894961
0.01782065627
0.005029558778
0.004041237603
0.004085342176
0.00416995791
0.004289774997
0.004439766418
0.004615033122
0.004811151166
0.005023947833
0.005249458172
0.005483795257
0.005723465946
0.005964746515
0.006203750516
0.006435123802
0.006646151315
0.006773745953
0.006925437854
0.007119111149
0.00732840927
0.007545162154
0.007765896666
0.00798880605
0.008212068852
0.008434476534
0.008655347997
0.008874440213
0.009091098855
0.00930513785
0.009516627725
0.009725589482
0.009931914019
0.01013583143
0.01033772459
0.01053754722
0.01073556556
0.01093252051
0.01112835004
0.01132351649
0.01151884713
0.01171446196
0.01191121681
0.01210975871
0.01231065875
0.01251543874
0.01272434475
0.01293969279
0.01316195904
0.01339416059
0.01363762338
0.01389591149
0.01417271977
0.01447227174
0.01480108683
0.01516834443
0.01558444784
0.01606482499
0.01663143554
0.01731460727
0.01815478586
0.01920101235
0.02044932633
0.02149400473
0.01953379849
0.005513062268
0.004401487744
0.004449523954
0.004541682632
0.004672180636
0.00483554282
0.005026433414
0.005240034111
0.005471800222
0.005717413346
0.005972640063
0.006233675842
0.00649646501
0.006756774668
0.007008773383
0.007238612631
0.007377581504
0.007542795754
0.007753733769
0.007981689461
0.00821776446
0.008458176023
0.008700956334
0.008944121568
0.009186355453
0.009426916176
0.009665539043
0.009901511399
0.01013463058
0.01036497341
0.01059256275
0.01081727979
0.01103937511
0.01125926574
0.01147690126
0.01169257165
0.01190708386
0.01212037033
0.0123329346
0.0125456777
0.01275873032
0.01297302459
0.01318926521
0.01340807419
0.01363110899
0.01385863762
0.01409318254
0.01433526239
0.0145881632
0.01485332912
0.01513464194
0.01543612588
0.01576238097
0.0161205078
0.01652050403
0.01697370036
0.01749690002
0.01811402023
0.01885809229
0.01977316736
0.02091265816
0.02227225124
0.02341005595
0.02127511002
0.006004516039
0.004767661502
0.004819693998
0.004919519649
0.005060874197
0.005237827
0.00544459839
0.005675969208
0.005927016678
0.006193063139
0.006469522978
0.006752275153
0.007036926587
0.007318892234
0.007591855523
0.007840815829
0.007991345964
0.008170304913
0.008398791533
0.008645711583
0.008901426412
0.009161838576
0.009424816553
0.009688211476
0.009950597569
0.0102111713
0.01046964596
0.01072524961
0.01097776272
0.0112272685
0.01147379172
0.01171720368
0.01195777583
0.01219595986
0.01243170116
0.01266531386
0.01289767203
0.01312870247
0.01335895064
0.01358939251
0.01382016966
0.01405229175
0.01428652212
0.01452353451
0.01476512428
0.01501158174
0.0152656392
0.01552785844
0.01580179887
0.01608902479
0.01639374092
0.01672030627
0.01707370356
0.01746162409
0.01789489729
0.01838579646
0.01895252276
0.01962098316
0.02042695694
0.02141816002
0.02265244868
0.02412515063
0.02535761293
0.02304505406
0.006504050818
0.005139856282
0.005195950773
0.005303569467
0.005455959073
0.005646725968
0.005869639282
0.006119072416
0.006389718291
0.006676534075
0.006974576174
0.007279401829
0.007586275012
0.007890252738
0.008184525323
0.008452921096
0.008615202596
0.008808132249
0.009054456025
0.009320652267
0.009596329864
0.009877071502
0.01016057926
0.01044453651
0.01072740617
0.01100832199
0.01128697487
0.01156253261
0.01183475854
0.01210374237
0.0123695108
0.01263192509
0.01289127786
0.0131480561
0.0134022009
0.01365405093
0.0139045485
0.01415361468
0.01440183753
0.0146502692
0.01489906232
0.01514930538
0.01540182129
0.01565733642
0.01591778626
0.0161834838
0.01645737465
0.01674006443
0.01703539044
0.0173450391
0.01767354335
0.01802560252
0.01840658831
0.01882479246
0.01929188978
0.01982111175
0.02043208041
0.02115272518
0.02202161854
0.0230902014
0.02442084669
0.02600851737
0.02733719373
0.02484410142
0.007011799482
0.005518171085
0.005578394364
0.005693934241
0.005857540356
0.006062348488
0.00630166915
0.0065694616
0.006860028137
0.007167954756
0.007487933993
0.007815196085
0.008144656411
0.008471008162
0.008786940433
0.009075091251
0.009249317345
0.009456447423
0.009720901654
0.01000669105
0.01030265966
0.01060406505
0.01090844016
0.01121329784
0.01151698789
0.01181858028
0.01211774318
0.01241358311
0.012705846
0.01299462816
0.01327995826
0.01356168732
0.01384012954
0.01411580772
0.01438865864
0.01465904588
0.01492798111
0.0151953796
0.01546187268
0.01572858995
0.01599569528
0.01626435727
0.01653545941
0.01680978151
0.01708940155
0.01737465553
0.01766870588
0.01797220281
0.01828926604
0.01862170613
0.01897438966
0.01935236185
0.01976138978
0.02021037549
0.02071185312
0.02128002803
0.02193596652
0.02270965375
0.02364250127
0.02478973627
0.0262183226
0.02792285244
0.02934932491
0.02667273063
0.007527897092
0.005902706544
0.005967126501
0.00609071781
0.006265724868
0.006484805118
0.006740802914
0.007027256563
0.007338071319
0.0076674559
0.00800973299
0.008359800441
0.008712219312
0.009061312986
0.009399261095
0.009707491792
0.009893858885
0.01011542289
0.01039830569
0.01070401041
0.01102060369
0.0113430126
0.01166859818
0.01199469997
0.01231955275
0.0126421617
0.01296217186
0.01327862748
0.01359125681
0.01390016284
0.01420537625
0.0145067377
0.01480458325
0.01509947214
0.01539133677
0.01568056603
0.01596824209
0.01625427433
0.01653933806
0.01682464161
0.01711036025
0.01739774404
0.01768773801
0.01798117634
0.01828028178
0.01858541378
0.01889995512
0.01922460132
0.01956375921
0.01991936548
0.02029662587
0.02070093717
0.02113846834
0.02161874176
0.02215516501
0.02276293336
0.02346458113
0.024292183
0.02529003628
0.02651721671
0.02804535452
0.02986866505
0.03139454169
0.02853142811
0.008052480929
0.006293564946
0.006362250587
0.006494025718
0.006680621185
0.006914208231
0.007187157384
0.007492579081
0.007823974999
0.008175170376
0.008540111963
0.008913359764
0.009289114689
0.009661324232
0.01002165019
0.01035029094
0.01054899867
0.01078523393
0.01108684833
0.01141279584
0.01175035291
0.01209411072
0.01244125554
0.01278895075
0.01313531424
0.01347928533
0.01382048554
0.01415789585
0.01449122649
0.01482058729
0.01514601096
0.0154673276
0.01578489554
0.01609931103
0.016410502
0.0167188831
0.01702560815
0.01733058053
0.01763452028
0.01793871572
0.01824335374
0.01854976716
0.01885896361
0.01917183249
0.01949074374
0.0198160806
0.02015144987
0.02049759311
0.02085920895
0.02123836233
0.02164060371
0.02207168721
0.0225381903
0.02305026589
0.02362220938
0.02427022221
0.02501833086
0.02590073388
0.02696466183
0.02827310223
0.02990242845
0.03184647279
0.03347338811
0.03042068829
0.008585690534
0.00669085026
0.006763871727
0.006903965248
0.007102339673
0.00735067205
0.007640851293
0.00796555293
0.008317868427
0.008691233238
0.009079211995
0.009476021303
0.009875495998
0.01027120151
0.01065427327
0.01100365968
0.01121491096
0.01146605872
0.01178671273
0.01213323588
0.01249210146
0.0128575592
0.01322661776
0.01359626145
0.01396448936
0.01433017385
0.01469291253
0.01505162208
0.01540599443
0.01575614635
0.0161021126
0.01644371255
0.01678132717
0.01711559034
0.01744642544
0.01777427329
0.01810036056
0.01842458452
0.01874771066
0.01907110863
0.01939497712
0.01972073308
0.02004944776
0.02038206668
0.02072110941
0.02106698337
0.02142352303
0.02179151679
0.02217595986
0.02257904754
0.02300668066
0.02346497659
0.02396092798
0.02450532867
0.02511337647
0.02580229552
0.026597629
0.02753573428
0.02866682336
0.0300578599
0.03179003838
0.03385680176
0.03558641716
0.0323410137
0.009127667743
0.007094668165
0.00717209675
0.007320645441
0.007530992506
0.007794312674
0.008102005322
0.008446303921
0.00881988298
0.009215781756
0.009627176487
0.01004793472
0.01047151922
0.01089110704
0.01129729862
0.0116677718
0.01189177289
0.01215807836
0.01249808504
0.01286552216
0.01324604663
0.01363356112
0.01402489374
0.01441684681
0.01480729866
0.01519505358
0.0155796849
0.01596004392
0.01633580397
0.01670708887
0.01707393548
0.01743615227
0.01779414319
0.01814858041
0.01849938265
0.01884701734
0.0191927852
0.01953657729
0.0198792053
0.02022212155
0.02056553672
0.02091095328
0.02125950712
0.02161220084
0.02197170607
0.02233845482
0.02271651299
0.02310671655
0.0235143622
0.02394177774
0.02439522012
0.02488117592
0.02540705984
0.02598431715
0.02662906291
0.02735956082
0.02820289566
0.0291976191
0.03039697366
0.03187196447
0.03370868641
0.03590018671
0.03773419089
0.03429291516
0.009678556721
0.007505126076
0.007587034248
0.007744177137
0.00796669371
0.008245248112
0.008570742141
0.008934959935
0.009330152194
0.009748955464
0.0101841512
0.01062925216
0.01107734289
0.01152120572
0.01195089727
0.01234280397
0.01257976451
0.01286147694
0.0132211545
0.01360984949
0.01401238898
0.01442232289
0.01483629583
0.01525092512
0.01566396634
0.01607415459
0.01648103853
0.016883403
0.01728090243
0.0176736678
0.01806173811
0.01844491075
0.01882361303
0.019198556
0.0195696537
0.0199374006
0.02030317265
0.02066685464
0.02102930519
0.02139206066
0.02175534392
0.02212074435
0.02248946357
0.02286256219
0.02324286638
0.02363083317
0.02403076367
0.02444354223
0.02487477198
0.0253269154
0.02580659143
0.02632066192
0.02687697055
0.02748762475
0.0281696719
0.02894243234
0.02983455783
0.03088683042
0.03215557294
0.03371589849
0.03565888291
0.03797717119
0.03991728061
0.03627691188
0.01023850401
0.007922333174
0.00800879459
0.008174672992
0.008409559176
0.008703598312
0.00904718643
0.009431650952
0.009848811798
0.01029089618
0.01075028428
0.01122012824
0.01169312815
0.01216166515
0.0126152431
0.01302893574
0.01327906883
0.01357644154
0.01395611344
0.01436641583
0.01479133234
0.01522405432
0.01566103986
0.01609871824
0.01653472026
0.01696771071
0.01739721318
0.01782194494
0.01824154121
0.01865614026
0.01906578325
0.01947025631
0.0198700105
0.02026579641
0.02065752329
0.0210457131
0.02143181828
0.02181571721
0.02219831625
0.02258123716
0.02296471519
0.0233504281
0.02373964428
0.0241334833
0.02453492846
0.02494446217
0.02536662466
0.02580234942
0.02625755108
0.02673482897
0.02724117001
0.02778381749
0.0283710511
0.02901565133
0.02973561323
0.03055133112
0.03149304953
0.03260381755
0.03394308898
0.03559015243
0.03764114662
0.04008830766
0.04213626703
0.03829353158
0.01080765854
0.008346400435
0.008437489964
0.008612247518
0.008859706708
0.009169485193
0.009531464922
0.009936509091
0.01037599975
0.01084174807
0.01132572633
0.01182072013
0.01231903882
0.0128126557
0.0132905128
0.01372634962
0.01398987185
0.01430316235
0.01470315736
0.01513542245
0.01558308392
0.01603896867
0.01649934521
0.01696045167
0.01741979204
0.01787595964
0.01832845255
0.01877591938
0.01921797583
0.01965476757
0.02008633796
0.02051246169
0.02093361395
0.02135058552
0.02176328079
0.02217224965
0.0225790223
0.0229834706
0.02338654944
0.02378996736
0.02419397224
0.02460033161
0.02501038179
0.02542530226
0.025848236
0.02627969127
0.0267244513
0.02718349957
0.02766306729
0.02816589296
0.02869933746
0.02927103181
0.02988969891
0.03056880335
0.03132730342
0.03218668513
0.03317881191
0.03434903721
0.03575999726
0.03749522485
0.03965600482
0.04223415768
0.04439174038
0.04034331069
0.01138617172
0.008777440665
0.008873234408
0.009057017114
0.009317256049
0.009643032687
0.01002370644
0.01044966865
0.0109118563
0.01140165765
0.01191063041
0.01243118759
0.01295524138
0.01347435054
0.01397688602
0.01443523112
0.01471236265
0.01504183268
0.01546248497
0.01591707389
0.01638785432
0.01686728272
0.01735143488
0.01783635464
0.01831941712
0.01879914297
0.01927500436
0.0197455801
0.02021046605
0.02066981539
0.02112367374
0.02157180413
0.02201470632
0.0224532119
0.02288722034
0.02331730993
0.02374508989
0.02417042545
0.02459432083
0.02501857281
0.02544344205
0.02587078739
0.02630201413
0.02673836269
0.02718313836
0.02763687563
0.02810460479
0.02858736008
0.02909169452
0.02962048804
0.03018148166
0.03078270051
0.03143331796
0.03214749397
0.0329451659
0.03384892938
0.03489229341
0.03612295365
0.0376067811
0.03943162253
0.04170399348
0.04441529208
0.04668430064
0.04242679447
0.01197419744
0.009215568518
0.009316143827
0.009509100087
0.009782328904
0.01012436675
0.01052404192
0.01097126613
0.01145652398
0.01197077386
0.01250515211
0.01305169301
0.01360190506
0.01414692566
0.01467454531
0.01515576881
0.01544673342
0.01579264902
0.01623429826
0.01671157809
0.01720585762
0.0177092168
0.01821753551
0.01872666015
0.01923383479
0.01973750627
0.02023712038
0.02073118501
0.02121927584
0.0217015537
0.02217806649
0.0226485654
0.02311357515
0.02357396884
0.0240296409
0.0244811985
0.0249303312
0.02537689747
0.02582195168
0.02626738029
0.02671345697
0.02716213335
0.02761488486
0.02807301386
0.0285399906
0.02901637627
0.02950745223
0.03001430435
0.03054381276
0.03109900112
0.03168799686
0.03231922568
0.03300231884
0.0337521431
0.034589631
0.03553850603
0.03663394979
0.03792603871
0.03948393173
0.04139986051
0.04378565735
0.04663229101
0.04901455763
0.04454453711
0.0125718921
0.009660900538
0.009766336036
0.009968616691
0.01025504898
0.01061361543
0.01103260445
0.01150144027
0.01201014766
0.01254924809
0.01310944957
0.01368240145
0.01425920188
0.01483055999
0.01538367627
0.01588815435
0.0161931795
0.01655581108
0.01701880253
0.01751914637
0.01803731141
0.01856499485
0.0190978775
0.01963160502
0.0201632883
0.02069129914
0.02121505654
0.02173299629
0.02224467356
0.02275025696
0.0232497967
0.02374303194
0.02423051277
0.02471315446
0.02519084637
0.02566422498
0.02613506151
0.0266032076
0.02706976856
0.02753672201
0.02800435484
0.028474713
0.02894934322
0.02942961079
0.02991915366
0.03041856013
0.03093336679
0.03146471197
0.03201980828
0.03260182549
0.03321928379
0.03388101604
0.03459711891
0.03538317758
0.03626113615
0.0372558645
0.03840424436
0.03975877202
0.04139194848
0.04340046237
0.04590155017
0.04888574421
0.05138313119
0.04669710194
0.01317941469
0.01011355519
0.01022393079
0.01043568916
0.01073554204
0.01111090886
0.01154952932
0.0120403321
0.01257287461
0.01313723422
0.01372368354
0.01432348067
0.01492730668
0.01552543537
0.01610446752
0.01663258257
0.01695189945
0.01733152188
0.01781620646
0.01833999355
0.01888243685
0.01943484453
0.01999269501
0.02055142996
0.02110802489
0.02166077529
0.02220907298
0.02275128043
0.02328693198
0.02381620413
0.02433914944
0.02485549488
0.02536581627
0.0258710718
0.02637114562
0.02686670406
0.02735960129
0.02784968204
0.02833810338
0.0288269356
0.02931647904
0.02980887549
0.03030574418
0.03080851434
0.0313209944
0.03184380021
0.03238272777
0.03293896875
0.0335200737
0.03412936092
0.03477574979
0.03546848703
0.03621814239
0.03704103129
0.03796012598
0.03900146163
0.04020364801
0.04162164111
0.04333133889
0.04543396028
0.04805223477
0.05117625111
0.05379065139
0.04888506156
0.01379692683
0.01057365286
0.0106890498
0.01091044173
0.01122393587
0.01161637932
0.01207495401
0.01258808496
0.01314485452
0.01373488864
0.01434801739
0.0149751012
0.01560639717
0.01623173663
0.01683711078
0.01738925146
0.01772309508
0.01811998773
0.01862672216
0.01917433798
0.01974145875
0.02031899719
0.02090222607
0.02148637963
0.02206829583
0.02264619261
0.02321943409
0.02378630828
0.02434632831
0.02489967873
0.02544641449
0.02598625011
0.02651978764
0.02704802885
0.02757085261
0.02808895557
0.02860427626
0.02911665234
0.02962729351
0.03013836426
0.03065017858
0.03116497571
0.03168444853
0.0322100913
0.0327458857
0.0332924756
0.03385592068
0.03443746683
0.03504500808
0.03568201371
0.03635780886
0.03708206091
0.03786582047
0.0387261452
0.03968705241
0.04077576172
0.04203263937
0.04351514147
0.04530261882
0.04750089512
0.05023828322
0.05350442095
0.05623775859
0.05110899793
0.01442459275
0.01104131596
0.0111618168
0.01139300069
0.01172036039
0.01213016125
0.01260901829
0.01314484456
0.01372623954
0.01434237032
0.01498261721
0.01563743637
0.01629665398
0.01694965164
0.01758180095
0.01815836231
0.01850697153
0.01892141838
0.01945056521
0.02002240159
0.02061460559
0.02121768804
0.0218267126
0.02243670275
0.02304435658
0.0236478132
0.02424640864
0.02483835515
0.02542314437
0.02600096898
0.02657188636
0.02713559843
0.02769273384
0.02824433867
0.02879028646
0.02933130464
0.0298694175
0.03040445551
0.03093768187
0.03147135682
0.03200580823
0.03254337437
0.033085823
0.03363471447
0.03419420657
0.03476497165
0.03535333739
0.0359606048
0.03659501706
0.03726019687
0.03796588183
0.03872216689
0.03954059143
0.04043896753
0.04144237481
0.04257923674
0.04389170495
0.04543977677
0.04730631263
0.0496018167
0.05246027699
0.05587087305
0.05872510373
0.05336950264
0.01506257943
0.01151666887
0.01164235753
0.0118834944
0.01222494765
0.01265239135
0.01315186423
0.013710759
0.01431718431
0.01495984088
0.0156276518
0.01631066236
0.01699826074
0.01767937138
0.01833873611
0.0189401197
0.01930373732
0.01973602702
0.02028795478
0.02088440997
0.02150210966
0.02213115613
0.02276640053
0.0234026521
0.02403646676
0.02466590352
0.0252902698
0.02590770092
0.02651766659
0.02712036782
0.02771586445
0.02830384556
0.02888496687
0.02946031951
0.03002977154
0.03059408175
0.03115536155
0.03171343412
0.03226961705
0.03282626788
0.03338372859
0.03394443814
0.03451024037
0.03508276283
0.03566634229
0.03626168006
0.03687537624
0.03750878785
0.03817051295
0.03886433021
0.03960039645
0.04038924125
0.04124290076
0.04217995394
0.0432265601
0.04441236644
0.04578133929
0.047396059
0.04934295333
0.05173728389
0.05471880718
0.05827623689
0.06125334847
0.05566717699
0.01571105657
0.01199983804
0.01213079983
0.01238205334
0.01273783188
0.01318320851
0.01370363622
0.01428597881
0.01491784602
0.01558746454
0.01628329274
0.01699495826
0.01771140407
0.01842108996
0.0191081176
0.01973473158
0.02011360438
0.02056403032
0.0211391136
0.02176059241
0.02240420701
0.02305964444
0.02372153982
0.02438448462
0.02504489028
0.02570073436
0.02635129525
0.02699463
0.02763018612
0.02825817301
0.02887865305
0.02949130226
0.03009680388
0.0306962948
0.03128963757
0.03187762279
0.03246245047
0.03304393635
0.03362345333
0.03420345783
0.03478430619
0.03536853969
0.03595807954