/*--------------------------------*- C++ -*----------------------------------*\
| =========                 |                                                 |
| \\      /  F ield         | foam-extend: Open Source CFD                    |
|  \\    /   O peration     | Version:     3.2                                |
|   \\  /    A nd           | Web:         http://www.foam-extend.org         |
|    \\/     M anipulation  | For copyright notice see file Copyright         |
\*---------------------------------------------------------------------------*/
FoamFile
{
    version     2.0;
    format      ascii;
    class       volScalarField;
    location    "0";
    object      nut;
}
// * * * * * * * * * * * * * * * * * * * * * * * * * * * * * * * * * * * * * //

dimensions      [0 2 -1 0 0 0 0];

internalField   nonuniform List<scalar> 
57344
(
1.346339771e-06
1.339466016e-06
1.3280252e-06
1.315315732e-06
1.3041853e-06
1.296430455e-06
1.292688017e-06
1.292558205e-06
1.294771105e-06
1.297383602e-06
1.29799269e-06
1.294012674e-06
1.282781599e-06
1.26176495e-06
1.229660767e-06
1.204231398e-06
1.176597164e-06
1.149903621e-06
1.127185146e-06
1.106576544e-06
1.086538784e-06
1.06612324e-06
1.044905536e-06
1.022733667e-06
9.995709878e-07
9.753640728e-07
9.502909641e-07
9.244492501e-07
8.97887041e-07
8.707215299e-07
8.43091474e-07
8.150862848e-07
7.867356831e-07
7.582020086e-07
7.295591298e-07
7.008063333e-07
6.720822699e-07
6.434449652e-07
6.148952207e-07
5.865437594e-07
5.583959774e-07
5.305124523e-07
5.029359099e-07
4.75656424e-07
4.487581332e-07
4.222079191e-07
3.960668017e-07
3.703096086e-07
3.449731501e-07
3.200285046e-07
2.954784739e-07
2.712912555e-07
2.474291261e-07
2.238240755e-07
2.004017138e-07
1.770377844e-07
1.535755919e-07
1.298133689e-07
1.055279379e-07
8.054457336e-08
5.504582169e-08
3.033999127e-08
9.923291286e-09
3.010121435e-10
4.061157272e-06
4.040422979e-06
4.00591241e-06
3.967575023e-06
3.934000707e-06
3.910608659e-06
3.89931981e-06
3.898928239e-06
3.905603326e-06
3.913483773e-06
3.915321053e-06
3.903315563e-06
3.869437663e-06
3.806042138e-06
3.709201698e-06
3.632495454e-06
3.549138359e-06
3.468618808e-06
3.400089821e-06
3.337925147e-06
3.277482385e-06
3.215900058e-06
3.151898062e-06
3.085017881e-06
3.015148978e-06
2.942130197e-06
2.866498592e-06
2.788548533e-06
2.708425141e-06
2.626481924e-06
2.543137433e-06
2.458661374e-06
2.373143398e-06
2.287073194e-06
2.20067358e-06
2.113942407e-06
2.027297905e-06
1.940915105e-06
1.854796427e-06
1.769275858e-06
1.684369676e-06
1.600260609e-06
1.517077539e-06
1.434790523e-06
1.35365336e-06
1.273566151e-06
1.194712959e-06
1.117017852e-06
1.040591867e-06
9.653477646e-07
8.912939945e-07
8.183346274e-07
7.463558723e-07
6.75152581e-07
6.045003605e-07
5.340243975e-07
4.632520298e-07
3.915746368e-07
3.183190168e-07
2.4295812e-07
1.660425873e-07
9.151885636e-08
2.993304322e-08
9.079859939e-10
6.820614704e-06
6.785791964e-06
6.727832305e-06
6.663445597e-06
6.607058352e-06
6.567771977e-06
6.54881263e-06
6.548154995e-06
6.559365642e-06
6.57260066e-06
6.575686328e-06
6.555523399e-06
6.498626291e-06
6.392155051e-06
6.229513892e-06
6.100687624e-06
5.960691414e-06
5.825460789e-06
5.710368025e-06
5.605963969e-06
5.504451822e-06
5.401025805e-06
5.293536012e-06
5.181212377e-06
5.063869256e-06
4.941235992e-06
4.814214555e-06
4.683299329e-06
4.548734045e-06
4.411112407e-06
4.271137365e-06
4.129261883e-06
3.985636525e-06
3.841083713e-06
3.695977668e-06
3.550314774e-06
3.404797444e-06
3.259719637e-06
3.115085414e-06
2.971455702e-06
2.828857837e-06
2.68759871e-06
2.54789477e-06
2.409695731e-06
2.273427843e-06
2.138923325e-06
2.00649131e-06
1.876004271e-06
1.747648692e-06
1.621278054e-06
1.496906551e-06
1.374373071e-06
1.253486506e-06
1.133902312e-06
1.015243629e-06
8.968809662e-07
7.780204987e-07
6.576400634e-07
5.346090342e-07
4.080422439e-07
2.788644804e-07
1.537036898e-07
5.027181689e-08
1.524940357e-09
9.625446083e-06
9.576303239e-06
9.494508915e-06
9.403644555e-06
9.324069266e-06
9.268627212e-06
9.24187124e-06
9.240943168e-06
9.256763953e-06
9.275441588e-06
9.27979617e-06
9.25134167e-06
9.171046848e-06
9.020791596e-06
8.791267751e-06
8.609464447e-06
8.4118978e-06
8.221056483e-06
8.058634291e-06
7.911296309e-06
7.76803947e-06
7.622081724e-06
7.47038906e-06
7.311874742e-06
7.146276782e-06
6.973213221e-06
6.793956944e-06
6.609205642e-06
6.419303273e-06
6.225087691e-06
6.027550918e-06
5.827332189e-06
5.624643987e-06
5.420646934e-06
5.215869142e-06
5.010305511e-06
4.804947302e-06
4.600209361e-06
4.396097419e-06
4.193403071e-06
3.992164896e-06
3.792815985e-06
3.595661799e-06
3.400631371e-06
3.208326239e-06
3.018509627e-06
2.831617788e-06
2.647470756e-06
2.466331699e-06
2.28799385e-06
2.112477236e-06
1.939554493e-06
1.768955922e-06
1.600195297e-06
1.432740778e-06
1.26570401e-06
1.097964727e-06
9.280804219e-07
7.544555231e-07
5.758408573e-07
3.935415116e-07
2.169110326e-07
7.09450224e-08
2.152039343e-09
1.24763975e-05
1.241269908e-05
1.230667818e-05
1.218890079e-05
1.208575618e-05
1.201389279e-05
1.1979212e-05
1.197800904e-05
1.199851577e-05
1.202272551e-05
1.202836988e-05
1.199148746e-05
1.18874102e-05
1.169265099e-05
1.13951447e-05
1.115949326e-05
1.090340954e-05
1.065604312e-05
1.044551326e-05
1.025453539e-05
1.006884745e-05
9.879658617e-06
9.683036253e-06
9.477571734e-06
9.262925477e-06
9.03860239e-06
8.806252372e-06
8.566779764e-06
8.3206304e-06
8.068890295e-06
7.8128453e-06
7.553323982e-06
7.29060176e-06
7.026183021e-06
6.760752296e-06
6.494302975e-06
6.22811992e-06
5.96274085e-06
5.698173192e-06
5.435443004e-06
5.174600292e-06
4.916206423e-06
4.660657332e-06
4.407861034e-06
4.158597234e-06
3.912559026e-06
3.670311877e-06
3.431622516e-06
3.196832061e-06
2.965672499e-06
2.738169792e-06
2.514029232e-06
2.292901238e-06
2.074155569e-06
1.85710286e-06
1.640591637e-06
1.42316982e-06
1.20296765e-06
9.779169628e-07
7.463985947e-07
5.101041851e-07
2.811576982e-07
9.195815885e-08
2.789449761e-09
1.53742273e-05
1.529573398e-05
1.516508813e-05
1.501995519e-05
1.48928537e-05
1.480429897e-05
1.476156304e-05
1.476008068e-05
1.47853504e-05
1.481518322e-05
1.482213857e-05
1.477668967e-05
1.46484389e-05
1.440844396e-05
1.404183739e-05
1.375145237e-05
1.343588938e-05
1.313106841e-05
1.287163985e-05
1.26363045e-05
1.240748776e-05
1.2174357e-05
1.193206616e-05
1.167887943e-05
1.141437837e-05
1.11379529e-05
1.085163611e-05
1.055654241e-05
1.025322118e-05
9.943010673e-06
9.6274954e-06
9.307696377e-06
8.983952992e-06
8.658119049e-06
8.33103807e-06
8.002701912e-06
7.674693864e-06
7.347676538e-06
7.021659087e-06
6.697905886e-06
6.376478556e-06
6.058068848e-06
5.743164661e-06
5.431652644e-06
5.124493601e-06
4.821309341e-06
4.522796671e-06
4.228668138e-06
3.939344091e-06
3.654494265e-06
3.374150654e-06
3.097950099e-06
2.825461823e-06
2.555909203e-06
2.288442758e-06
2.021643567e-06
1.753722283e-06
1.482374867e-06
1.205052794e-06
9.197608249e-07
6.285835066e-07
3.464607761e-07
1.133168157e-07
3.437341162e-09
1.831970632e-05
1.822617482e-05
1.807049912e-05
1.789756081e-05
1.774610851e-05
1.764058798e-05
1.758966447e-05
1.758789811e-05
1.761800914e-05
1.76535575e-05
1.766184539e-05
1.760768914e-05
1.745486739e-05
1.716889289e-05
1.673204982e-05
1.638603124e-05
1.601001096e-05
1.564679072e-05
1.53376594e-05
1.505723722e-05
1.478458251e-05
1.450678727e-05
1.421807701e-05
1.391638338e-05
1.360120776e-05
1.327182317e-05
1.293065224e-05
1.257902287e-05
1.221758968e-05
1.184794734e-05
1.147198392e-05
1.109091604e-05
1.070514812e-05
1.031688911e-05
9.927144162e-06
9.535903556e-06
9.145053922e-06
8.755384819e-06
8.366907151e-06
7.981127532e-06
7.598119386e-06
7.218706995e-06
6.843471732e-06
6.47227853e-06
6.106272268e-06
5.745002301e-06
5.38929893e-06
5.038819637e-06
4.694065296e-06
4.354642375e-06
4.020588993e-06
3.691472416e-06
3.366779338e-06
3.045584344e-06
2.726875207e-06
2.40896116e-06
2.089710043e-06
1.766376397e-06
1.435923436e-06
1.095973662e-06
7.490109918e-07
4.12837637e-07
1.350266745e-07
4.095885886e-09
2.131361806e-05
2.120480109e-05
2.102368398e-05
2.08224831e-05
2.06462796e-05
2.05235143e-05
2.046426857e-05
2.046221354e-05
2.049724549e-05
2.053860336e-05
2.054824571e-05
2.048523893e-05
2.030744217e-05
1.997473208e-05
1.94664976e-05
1.906393068e-05
1.8626459e-05
1.820387922e-05
1.784422788e-05
1.751797749e-05
1.720076398e-05
1.687756985e-05
1.65416769e-05
1.619067877e-05
1.582399533e-05
1.544078081e-05
1.504385377e-05
1.463475911e-05
1.421425843e-05
1.378420701e-05
1.334680149e-05
1.29034573e-05
1.245464497e-05
1.200293445e-05
1.154949514e-05
1.109431574e-05
1.063959121e-05
1.018624015e-05
9.734275224e-06
9.285449281e-06
8.839847741e-06
8.398429595e-06
7.961871229e-06
7.5300155e-06
7.10419439e-06
6.683883607e-06
6.270049147e-06
5.862292512e-06
5.461196436e-06
5.066303068e-06
4.677656763e-06
4.294754062e-06
3.916997775e-06
3.543311248e-06
3.172516831e-06
2.802647443e-06
2.431222473e-06
2.055047784e-06
1.6705903e-06
1.275083979e-06
8.714186745e-07
4.803059372e-07
1.5709351e-07
4.765259107e-09
2.435675889e-05
2.423240513e-05
2.402542827e-05
2.379550009e-05
2.359413839e-05
2.345384476e-05
2.338613998e-05
2.338379154e-05
2.342382532e-05
2.347108824e-05
2.348210731e-05
2.341010448e-05
2.320692204e-05
2.282670787e-05
2.22459081e-05
2.1785863e-05
2.128592948e-05
2.08030141e-05
2.039201204e-05
2.001917989e-05
1.96566749e-05
1.928733538e-05
1.890348391e-05
1.850237055e-05
1.808333235e-05
1.764540278e-05
1.719180283e-05
1.672429796e-05
1.624375854e-05
1.575230474e-05
1.525244681e-05
1.474580231e-05
1.423290892e-05
1.371670354e-05
1.319852254e-05
1.267835301e-05
1.215870328e-05
1.164062312e-05
1.112412702e-05
1.061121808e-05
1.010199392e-05
9.597550456e-06
9.098660645e-06
8.605144911e-06
8.118525414e-06
7.638203004e-06
7.165281601e-06
6.699305809e-06
6.240941565e-06
5.789665648e-06
5.345528743e-06
4.90795551e-06
4.476263491e-06
4.04922231e-06
3.625486172e-06
3.202807136e-06
2.778350416e-06
2.348465814e-06
1.909115807e-06
1.45713942e-06
9.958391152e-07
5.488836233e-07
1.79523192e-07
5.445638878e-09
2.744993829e-05
2.730979227e-05
2.707653044e-05
2.681740259e-05
2.659046903e-05
2.643235886e-05
2.635605592e-05
2.635340924e-05
2.63985271e-05
2.645179216e-05
2.64642106e-05
2.638306378e-05
2.615407825e-05
2.57255789e-05
2.507102063e-05
2.455255224e-05
2.398912981e-05
2.344488673e-05
2.298168959e-05
2.256150973e-05
2.215296852e-05
2.173672484e-05
2.130412627e-05
2.085207363e-05
2.03798198e-05
1.98862755e-05
1.937507075e-05
1.884819524e-05
1.830662987e-05
1.775276403e-05
1.718942679e-05
1.661844112e-05
1.604041299e-05
1.545865226e-05
1.487466501e-05
1.42884367e-05
1.370279422e-05
1.311892062e-05
1.253683225e-05
1.195878659e-05
1.138489366e-05
1.081638854e-05
1.025414237e-05
9.697952748e-06
9.149535152e-06
8.608214339e-06
8.075234422e-06
7.550082172e-06
7.033508096e-06
6.524922527e-06
6.024382587e-06
5.531239871e-06
5.044725252e-06
4.563452102e-06
4.085903718e-06
3.609546683e-06
3.131186206e-06
2.646708536e-06
2.151563405e-06
1.64218841e-06
1.12230541e-06
6.18588937e-07
2.023216867e-07
6.137206179e-09
3.059397906e-05
3.043778109e-05
3.017780209e-05
2.988899446e-05
2.963606854e-05
2.945984886e-05
2.93748064e-05
2.937185657e-05
2.942214211e-05
2.9481508e-05
2.949534881e-05
2.940490766e-05
2.914969476e-05
2.867211626e-05
2.794258668e-05
2.736473434e-05
2.673677905e-05
2.613019986e-05
2.561394938e-05
2.514564328e-05
2.469030888e-05
2.422638978e-05
2.374424255e-05
2.324041305e-05
2.271406856e-05
2.216399504e-05
2.15942383e-05
2.100701591e-05
2.040342112e-05
1.978611701e-05
1.915825666e-05
1.852187186e-05
1.787763797e-05
1.722924396e-05
1.657836841e-05
1.592499512e-05
1.527227475e-05
1.462152587e-05
1.397276669e-05
1.332851326e-05
1.26888882e-05
1.205526807e-05
1.142862376e-05
1.08087297e-05
1.019749785e-05
9.594175638e-06
9.000149661e-06
8.41484791e-06
7.839106854e-06
7.272269287e-06
6.714398872e-06
6.16477294e-06
5.622534268e-06
5.08613741e-06
4.553891941e-06
4.022974276e-06
3.4898237e-06
2.949855284e-06
2.397997586e-06
1.830280174e-06
1.250851198e-06
6.8944042e-07
2.254950587e-07
6.84014497e-09
3.37897175e-05
3.361720365e-05
3.333006816e-05
3.301109271e-05
3.273174705e-05
3.253712009e-05
3.24431944e-05
3.243993644e-05
3.249547463e-05
3.256104167e-05
3.257632824e-05
3.247643993e-05
3.219456839e-05
3.166710374e-05
3.086137009e-05
3.022315735e-05
2.952960807e-05
2.885966778e-05
2.82894916e-05
2.777226791e-05
2.726937089e-05
2.675699246e-05
2.622448184e-05
2.566802409e-05
2.508669952e-05
2.447916728e-05
2.384989577e-05
2.320133422e-05
2.253469006e-05
2.185290455e-05
2.115946014e-05
2.045660084e-05
1.974507256e-05
1.902894962e-05
1.831008592e-05
1.758846357e-05
1.686756235e-05
1.614883855e-05
1.543231229e-05
1.472076244e-05
1.401432442e-05
1.331451857e-05
1.262241722e-05
1.193777123e-05
1.126269228e-05
1.059634917e-05
9.940273344e-06
9.29383305e-06
8.657952127e-06
8.03190472e-06
7.415761143e-06
6.808723237e-06
6.209844238e-06
5.617417268e-06
5.029575327e-06
4.443199887e-06
3.854358295e-06
3.257986696e-06
2.648483901e-06
2.021464743e-06
1.381510674e-06
7.614569188e-07
2.49049472e-07
7.554642231e-09
3.70380037e-05
3.684890567e-05
3.653416717e-05
3.618452784e-05
3.587832802e-05
3.56649911e-05
3.556203611e-05
3.555846496e-05
3.561934216e-05
3.569121232e-05
3.570796843e-05
3.559847762e-05
3.528950909e-05
3.471133801e-05
3.382814725e-05
3.31285816e-05
3.236835978e-05
3.163401652e-05
3.100902795e-05
3.044208231e-05
2.98908406e-05
2.9329206e-05
2.874550387e-05
2.813555251e-05
2.749834383e-05
2.683240806e-05
2.614264318e-05
2.543173385e-05
2.47010036e-05
2.395367642e-05
2.319356955e-05
2.242314271e-05
2.164321352e-05
2.085824797e-05
2.007027819e-05
1.927928456e-05
1.848908138e-05
1.770126494e-05
1.691585731e-05
1.613590447e-05
1.536155487e-05
1.459447502e-05
1.383584032e-05
1.308537768e-05
1.234540177e-05
1.16150015e-05
1.089585555e-05
1.01872714e-05
9.49026173e-06
8.804030891e-06
8.128655961e-06
7.463262052e-06
6.806811386e-06
6.157432997e-06
5.513080408e-06
4.870335297e-06
4.224886958e-06
3.571184733e-06
2.90308898e-06
2.215792974e-06
1.514318592e-06
8.346575898e-07
2.729911922e-07
8.28088802e-09
4.033970168e-05
4.01337468e-05
3.979095139e-05
3.941014399e-05
3.907664844e-05
3.884429392e-05
3.873216115e-05
3.872827165e-05
3.879457567e-05
3.887285258e-05
3.889110239e-05
3.877185118e-05
3.843534011e-05
3.780562883e-05
3.684370734e-05
3.608177994e-05
3.525378927e-05
3.445398407e-05
3.377328183e-05
3.315579665e-05
3.255541532e-05
3.194371464e-05
3.130797924e-05
3.064365467e-05
2.994964296e-05
2.922434334e-05
2.847309039e-05
2.76988081e-05
2.690293799e-05
2.608899143e-05
2.526112596e-05
2.442202056e-05
2.357256573e-05
2.271762559e-05
2.185941341e-05
2.099790783e-05
2.013726315e-05
1.927921799e-05
1.842379635e-05
1.757431577e-05
1.673093793e-05
1.589547789e-05
1.506921581e-05
1.425185429e-05
1.344591433e-05
1.265040361e-05
1.186715045e-05
1.109540063e-05
1.033625706e-05
9.588853186e-06
8.853272958e-06
8.128563495e-06
7.413594506e-06
6.706328243e-06
6.004535796e-06
5.304494125e-06
4.601508249e-06
3.889532707e-06
3.161880548e-06
2.413316557e-06
1.64931028e-06
9.090619045e-07
2.973265878e-07
9.019075519e-09
4.369568971e-05
4.347260079e-05
4.310128715e-05
4.268879916e-05
4.232755906e-05
4.207587422e-05
4.195441277e-05
4.19501997e-05
4.202201975e-05
4.210680877e-05
4.212657684e-05
4.199740475e-05
4.163289825e-05
4.095079928e-05
3.990885249e-05
3.908353793e-05
3.818666408e-05
3.732032054e-05
3.658298851e-05
3.591413278e-05
3.526380382e-05
3.460121381e-05
3.391258957e-05
3.319299773e-05
3.244124897e-05
3.165560937e-05
3.08418573e-05
3.000316001e-05
2.914107893e-05
2.825941757e-05
2.736267934e-05
2.645376609e-05
2.553364242e-05
2.460757709e-05
2.367796751e-05
2.274479053e-05
2.18125461e-05
2.088311743e-05
1.995653054e-05
1.903637897e-05
1.812283785e-05
1.721787323e-05
1.632287178e-05
1.543751136e-05
1.456452269e-05
1.37028309e-05
1.285441643e-05
1.201846228e-05
1.119616314e-05
1.038658037e-05
9.589804882e-06
8.804804534e-06
8.030355003e-06
7.26424901e-06
6.504072218e-06
5.745791855e-06
4.984322349e-06
4.213115298e-06
3.424927443e-06
2.614088034e-06
1.786521646e-06
9.846896544e-07
3.220621319e-07
9.769401085e-09
4.710686049e-05
4.686635578e-05
4.646605498e-05
4.602136549e-05
4.563192462e-05
4.536059163e-05
4.52296481e-05
4.522510613e-05
4.530253292e-05
4.539394113e-05
4.541525242e-05
4.527599631e-05
4.488303406e-05
4.414768599e-05
4.302439803e-05
4.213465403e-05
4.116776435e-05
4.023378839e-05
3.94388954e-05
3.871782443e-05
3.801672654e-05
3.730241043e-05
3.656002768e-05
3.578425981e-05
3.497382464e-05
3.412685288e-05
3.324957401e-05
3.234540253e-05
3.141602177e-05
3.046553218e-05
2.949878871e-05
2.851891976e-05
2.752696522e-05
2.652860519e-05
2.552642422e-05
2.452039736e-05
2.351537583e-05
2.25133899e-05
2.151446759e-05
2.052248298e-05
1.953762487e-05
1.856201281e-05
1.759714171e-05
1.664266427e-05
1.57015244e-05
1.477256333e-05
1.385791608e-05
1.29567019e-05
1.207020872e-05
1.119742463e-05
1.033844765e-05
9.492165052e-06
8.657256934e-06
7.831343707e-06
7.011822553e-06
6.194345874e-06
5.373431088e-06
4.542018581e-06
3.692299636e-06
2.81816081e-06
1.925989188e-06
1.061560957e-06
3.472044042e-07
1.053206431e-08
5.057412138e-05
5.031591453e-05
4.988614991e-05
4.940872943e-05
4.899062409e-05
4.869931986e-05
4.855873835e-05
4.855386207e-05
4.86369878e-05
4.873512403e-05
4.875800392e-05
4.860849798e-05
4.818661208e-05
4.739713933e-05
4.61911727e-05
4.523593984e-05
4.419788306e-05
4.319516258e-05
4.234176216e-05
4.156761737e-05
4.081491576e-05
4.004802301e-05
3.92509978e-05
3.841813018e-05
3.754804362e-05
3.663873121e-05
3.569688097e-05
3.472615871e-05
3.372837166e-05
3.270792208e-05
3.167002226e-05
3.061803088e-05
2.955306437e-05
2.848122088e-05
2.740527523e-05
2.63252006e-05
2.524620531e-05
2.417046905e-05
2.30980219e-05
2.20330231e-05
2.097567534e-05
1.992825416e-05
1.889236454e-05
1.786763359e-05
1.685722191e-05
1.585988545e-05
1.487791635e-05
1.391036906e-05
1.29586263e-05
1.202160167e-05
1.10994004e-05
1.019082789e-05
9.294467058e-06
8.407763181e-06
7.527921861e-06
6.650275498e-06
5.768937969e-06
4.876330043e-06
3.964068249e-06
3.025589168e-06
2.067750004e-06
1.139696259e-06
3.727600927e-07
1.130726805e-08
5.409839467e-05
5.382219459e-05
5.33624817e-05
5.285179202e-05
5.240455089e-05
5.209294703e-05
5.194256905e-05
5.193735296e-05
5.202627134e-05
5.213124622e-05
5.21557205e-05
5.19957962e-05
5.154451104e-05
5.070002364e-05
4.941001885e-05
4.83882203e-05
4.727782621e-05
4.620523084e-05
4.529236096e-05
4.446426964e-05
4.365911579e-05
4.283878188e-05
4.198621573e-05
4.109530947e-05
4.016459065e-05
3.919191253e-05
3.818442916e-05
3.714606182e-05
3.607874367e-05
3.498718375e-05
3.387695756e-05
3.275165784e-05
3.16124788e-05
3.046594357e-05
2.931502031e-05
2.815968035e-05
2.700549494e-05
2.585479566e-05
2.47076147e-05
2.356840113e-05
2.243737176e-05
2.131696072e-05
2.02088848e-05
1.911274516e-05
1.803192264e-05
1.696508647e-05
1.591468856e-05
1.487971743e-05
1.386165218e-05
1.28593307e-05
1.187286556e-05
1.090097888e-05
9.942154869e-06
8.993660759e-06
8.052507424e-06
7.113702003e-06
6.170948196e-06
5.21613861e-06
4.240305571e-06
3.236428285e-06
2.211841802e-06
1.219116345e-06
3.98735995e-07
1.209521852e-08
5.768061783e-05
5.738612866e-05
5.689597505e-05
5.635146913e-05
5.587461311e-05
5.554237584e-05
5.538204032e-05
5.537647883e-05
5.54712851e-05
5.558321108e-05
5.560930598e-05
5.543879199e-05
5.495762417e-05
5.405721751e-05
5.268179272e-05
5.159233392e-05
5.040841308e-05
4.926479387e-05
4.829147665e-05
4.740855177e-05
4.65500832e-05
4.567542939e-05
4.476640903e-05
4.38165098e-05
4.282416175e-05
4.178707598e-05
4.071288028e-05
3.960575557e-05
3.846776301e-05
3.730392347e-05
3.612018165e-05
3.492036816e-05
3.370575633e-05
3.248330119e-05
3.125616746e-05
3.002432457e-05
2.879371269e-05
2.756681777e-05
2.634367415e-05
2.512902549e-05
2.392310296e-05
2.272850187e-05
2.15470527e-05
2.037833019e-05
1.922593905e-05
1.808846039e-05
1.696850848e-05
1.586500486e-05
1.477952658e-05
1.371083456e-05
1.265904885e-05
1.162280693e-05
1.060049266e-05
9.589192291e-06
8.585718784e-06
7.584748662e-06
6.579568704e-06
5.561534673e-06
4.521085082e-06
3.450734245e-06
2.358302912e-06
1.299842342e-06
4.251390209e-07
1.289612532e-08
6.132174374e-05
6.100866476e-05
6.048756988e-05
5.990869168e-05
5.940173382e-05
5.904852386e-05
5.887806705e-05
5.887215449e-05
5.897294547e-05
5.909193685e-05
5.9119679e-05
5.893840121e-05
5.842685937e-05
5.746961396e-05
5.60073646e-05
5.484913301e-05
5.359047641e-05
5.23746655e-05
5.133990701e-05
5.040124693e-05
4.948858699e-05
4.85587201e-05
4.759231724e-05
4.658245502e-05
4.552746436e-05
4.442491189e-05
4.32829069e-05
4.210589423e-05
4.089606517e-05
3.965875751e-05
3.840029123e-05
3.712473875e-05
3.583345376e-05
3.453383036e-05
3.322923303e-05
3.191962927e-05
3.061133423e-05
2.930699078e-05
2.800663544e-05
2.67153113e-05
2.543326414e-05
2.416325309e-05
2.290722419e-05
2.166472532e-05
2.043958875e-05
1.923030603e-05
1.803965643e-05
1.686649344e-05
1.571249365e-05
1.457633977e-05
1.345815941e-05
1.235650406e-05
1.126965554e-05
1.019451619e-05
9.127697776e-06
8.063540775e-06
6.994908189e-06
5.912610108e-06
4.806481471e-06
3.668564052e-06
2.507172293e-06
1.381895721e-06
4.519761937e-07
1.371020148e-08
6.502274094e-05
6.469076646e-05
6.413822156e-05
6.352440588e-05
6.298685122e-05
6.261232371e-05
6.24315792e-05
6.242530979e-05
6.253218388e-05
6.265835684e-05
6.268777333e-05
6.249555475e-05
6.195313943e-05
6.093812068e-05
5.938761908e-05
5.815948388e-05
5.682486263e-05
5.553567298e-05
5.443846293e-05
5.34431512e-05
5.24754088e-05
5.148942096e-05
5.046469206e-05
4.939388087e-05
4.827521757e-05
4.710612192e-05
4.589519264e-05
4.464714285e-05
4.336429607e-05
4.205231225e-05
4.071789281e-05
3.936535595e-05
3.799613708e-05
3.661807653e-05
3.523474186e-05
3.38460986e-05
3.245884304e-05
3.107577758e-05
2.969694091e-05
2.832768052e-05
2.696825701e-05
2.562159603e-05
2.428976108e-05
2.297227274e-05
2.167319458e-05
2.039092711e-05
1.912841735e-05
1.788444957e-05
1.666080156e-05
1.545607653e-05
1.427040979e-05
1.310226542e-05
1.194982151e-05
1.080979347e-05
9.678588567e-06
8.5502057e-06
7.41707713e-06
6.269458301e-06
5.096570652e-06
3.88997565e-06
2.658489543e-06
1.46529831e-06
4.792546519e-07
1.453766355e-08
6.87845939e-05
6.843341323e-05
6.784890117e-05
6.719957354e-05
6.663091896e-05
6.623472338e-05
6.6043522e-05
6.603688988e-05
6.614994711e-05
6.628341973e-05
6.63145381e-05
6.611119882e-05
6.553740238e-05
6.44636603e-05
6.282345534e-05
6.152426709e-05
6.01124321e-05
5.874865712e-05
5.758796863e-05
5.653507371e-05
5.551134314e-05
5.446831155e-05
5.338429755e-05
5.225153519e-05
5.106815228e-05
4.983141928e-05
4.855043239e-05
4.72301774e-05
4.587311226e-05
4.448522439e-05
4.307360288e-05
4.164281579e-05
4.019438155e-05
3.873659411e-05
3.727322741e-05
3.580424501e-05
3.433673058e-05
3.287364866e-05
3.14150402e-05
2.996656205e-05
2.852848988e-05
2.710391861e-05
2.569503112e-05
2.430132026e-05
2.292708468e-05
2.157063237e-05
2.023508084e-05
1.891914403e-05
1.762470257e-05
1.635027888e-05
1.509601608e-05
1.386028938e-05
1.264117151e-05
1.14351878e-05
1.023853769e-05
9.044872891e-06
7.846187825e-06
6.632174174e-06
5.391429791e-06
4.115027935e-06
2.812294913e-06
1.550072294e-06
5.069816518e-07
1.537873165e-08
7.260830326e-05
7.223760059e-05
7.162059572e-05
7.093517222e-05
7.033490635e-05
6.991668641e-05
6.971485621e-05
6.970785542e-05
6.982719745e-05
6.996808977e-05
7.0000938e-05
6.978629517e-05
6.91806016e-05
6.804717061e-05
6.631578727e-05
6.494437764e-05
6.345405929e-05
6.201447258e-05
6.078926186e-05
5.967783691e-05
5.859719754e-05
5.749618422e-05
5.63519103e-05
5.515617812e-05
5.39070114e-05
5.260152889e-05
5.124933242e-05
4.985568496e-05
4.842318109e-05
4.695814105e-05
4.546804805e-05
4.395772405e-05
4.24287719e-05
4.088994661e-05
3.934523191e-05
3.779458934e-05
3.624549634e-05
3.470108226e-05
3.316139032e-05
3.163239181e-05
3.011437776e-05
2.861061512e-05
2.71234081e-05
2.565222139e-05
2.420159258e-05
2.27697356e-05
2.135994127e-05
1.997085203e-05
1.860445307e-05
1.725918465e-05
1.593519786e-05
1.463077759e-05
1.334388941e-05
1.207086554e-05
1.08076941e-05
9.547673928e-06
8.282354415e-06
7.000854209e-06
5.691137318e-06
4.343780769e-06
2.968629315e-06
1.636240222e-06
5.351645686e-07
1.623362948e-08
7.649488611e-05
7.610434044e-05
7.545430849e-05
7.473219558e-05
7.409979864e-05
7.365919219e-05
7.344655841e-05
7.343918288e-05
7.356491306e-05
7.371334707e-05
7.37479536e-05
7.352182135e-05
7.288370617e-05
7.16896048e-05
6.986554385e-05
6.842072529e-05
6.685063306e-05
6.533398805e-05
6.404319415e-05
6.287227676e-05
6.173379285e-05
6.05738444e-05
5.93683197e-05
5.810858227e-05
5.679255006e-05
5.541718758e-05
5.399261064e-05
5.252436391e-05
5.101518086e-05
4.947172004e-05
4.790186522e-05
4.631069649e-05
4.469990247e-05
4.307870682e-05
4.145130652e-05
3.981766103e-05
3.818564806e-05
3.655856447e-05
3.493645577e-05
3.332561291e-05
3.172634249e-05
3.014208633e-05
2.857527198e-05
2.702533547e-05
2.549705729e-05
2.398855576e-05
2.250329785e-05
2.103985334e-05
1.960031367e-05
1.818303561e-05
1.678817835e-05
1.541393498e-05
1.405816215e-05
1.271699576e-05
1.138620919e-05
1.005874255e-05
8.725692921e-06
7.375596472e-06
5.995772955e-06
4.576295001e-06
3.127534334e-06
1.723825015e-06
5.638108989e-07
1.710258445e-08
8.044537633e-05
8.003466139e-05
7.935105928e-05
7.859165369e-05
7.792659733e-05
7.746323627e-05
7.723962126e-05
7.723186483e-05
7.73640882e-05
7.752018792e-05
7.755658166e-05
7.731877107e-05
7.664770117e-05
7.539193181e-05
7.347366933e-05
7.195423479e-05
7.030305696e-05
6.870808656e-05
6.735063109e-05
6.611924303e-05
6.492196342e-05
6.370211078e-05
6.243432814e-05
6.110953303e-05
5.972553585e-05
5.827914436e-05
5.678099678e-05
5.523692414e-05
5.364980107e-05
5.202663001e-05
5.037570184e-05
4.870235903e-05
4.700837741e-05
4.530345698e-05
4.359201147e-05
4.187399824e-05
4.015770185e-05
3.844658939e-05
3.674070876e-05
3.504667578e-05
3.336481288e-05
3.169873963e-05
3.005100897e-05
2.842102777e-05
2.681382343e-05
2.522741708e-05
2.366545473e-05
2.212643231e-05
2.061254928e-05
1.912207753e-05
1.765518448e-05
1.620996988e-05
1.478417973e-05
1.337375034e-05
1.197423683e-05
1.057821472e-05
9.176321274e-06
7.756500651e-06
6.305417739e-06
4.812632482e-06
3.28905224e-06
1.812849971e-06
5.929282629e-07
1.798582771e-08
8.446082473e-05
8.402960886e-05
8.33118846e-05
8.251457311e-05
8.181632033e-05
8.13298305e-05
8.10950537e-05
8.10869101e-05
8.122573343e-05
8.13896249e-05
8.142783524e-05
8.117815429e-05
8.047358779e-05
7.915513643e-05
7.714112346e-05
7.554584601e-05
7.381224928e-05
7.213766559e-05
7.071245244e-05
6.941959937e-05
6.81625573e-05
6.688181545e-05
6.555075117e-05
6.415982861e-05
6.270674891e-05
6.118816048e-05
5.961523255e-05
5.799408718e-05
5.632774252e-05
5.462355052e-05
5.289021592e-05
5.113334784e-05
4.935481076e-05
4.756478886e-05
4.576791617e-05
4.396414794e-05
4.216218224e-05
4.036565924e-05
3.85746292e-05
3.67960382e-05
3.503022475e-05
3.328098909e-05
3.155101159e-05
2.983966953e-05
2.815224124e-05
2.648664907e-05
2.484672103e-05
2.323087798e-05
2.164142914e-05
2.007656018e-05
1.853644684e-05
1.701909404e-05
1.552213527e-05
1.404130399e-05
1.257193346e-05
1.11062286e-05
9.63435934e-06
8.143668062e-06
6.620154032e-06
5.052856075e-06
3.453225996e-06
1.90333877e-06
6.225244057e-07
1.88835942e-08
8.854229942e-05
8.809024553e-05
8.733783805e-05
8.650199738e-05
8.577000231e-05
8.52600034e-05
8.501388128e-05
8.500534415e-05
8.515087597e-05
8.53226873e-05
8.536274412e-05
8.510099761e-05
8.436238373e-05
8.298021968e-05
8.086888179e-05
7.919651435e-05
7.73791435e-05
7.562363743e-05
7.412955246e-05
7.277422371e-05
7.145643649e-05
7.011380422e-05
6.871841775e-05
6.726028042e-05
6.573698228e-05
6.414500976e-05
6.249607184e-05
6.079658645e-05
5.904971755e-05
5.726317238e-05
5.544607632e-05
5.360430956e-05
5.173982667e-05
4.986330397e-05
4.797959942e-05
4.608866611e-05
4.419962244e-05
4.231628448e-05
4.043870493e-05
3.857416551e-05
3.67230211e-05
3.488925559e-05
3.307567886e-05
3.128163812e-05
2.951266674e-05
2.77665867e-05
2.604741098e-05
2.435348412e-05
2.268722695e-05
2.104673744e-05
1.943219985e-05
1.784152269e-05
1.627222506e-05
1.471983427e-05
1.317945806e-05
1.164292465e-05
1.009992896e-05
8.537201694e-06
6.940065556e-06
5.297029682e-06
3.620099272e-06
1.995315483e-06
6.526071999e-07
1.979612272e-08
9.269088611e-05
9.221765155e-05
9.142999056e-05
9.055498716e-05
8.978869498e-05
8.925480044e-05
8.899714644e-05
8.898820931e-05
8.914055991e-05
8.932042135e-05
8.9362355e-05
8.908834454e-05
8.831512343e-05
8.686819906e-05
8.465793594e-05
8.290721091e-05
8.100468843e-05
7.916692937e-05
7.76028401e-05
7.618400839e-05
7.480447718e-05
7.339893682e-05
7.193817051e-05
7.041171319e-05
6.881704199e-05
6.715047873e-05
6.5424281e-05
6.364516742e-05
6.181645022e-05
5.994619774e-05
5.804396294e-05
5.61159015e-05
5.416405959e-05
5.219961374e-05
5.022764955e-05
4.82481179e-05
4.627056443e-05
4.4298984e-05
4.233343179e-05
4.038153069e-05
3.844365222e-05
3.652396693e-05
3.462541636e-05
3.27473171e-05
3.089546183e-05
2.906757044e-05
2.726784396e-05
2.549454936e-05
2.375022089e-05
2.203286741e-05
2.034268181e-05
1.867747459e-05
1.703464863e-05
1.540952167e-05
1.379697222e-05
1.218844563e-05
1.057315397e-05
8.937206229e-06
7.265237409e-06
5.545218254e-06
3.789716457e-06
2.088804576e-06
6.831846477e-07
2.072365602e-08
9.690768827e-05
9.641292477e-05
9.558943058e-05
9.467462051e-05
9.387346727e-05
9.331528417e-05
9.304590867e-05
9.303656497e-05
9.319584648e-05
9.338389039e-05
9.342773173e-05
9.314125567e-05
9.233285828e-05
9.082010874e-05
8.850929374e-05
8.667892268e-05
8.468984842e-05
8.276848387e-05
8.113323923e-05
7.964986037e-05
7.820756991e-05
7.673808707e-05
7.521086587e-05
7.361496517e-05
7.194774732e-05
7.020536682e-05
6.840063888e-05
6.654058779e-05
6.462867644e-05
6.267334025e-05
6.068456676e-05
5.866879169e-05
5.662815431e-05
5.45743396e-05
5.25126645e-05
5.044307769e-05
4.837555904e-05
4.631428517e-05
4.425931376e-05
4.22186145e-05
4.01925758e-05
3.818555794e-05
3.620063628e-05
3.423709634e-05