/*--------------------------------*- C++ -*----------------------------------*\
| =========                 |                                                 |
| \\      /  F ield         | foam-extend: Open Source CFD                    |
|  \\    /   O peration     | Version:     3.2                                |
|   \\  /    A nd           | Web:         http://www.foam-extend.org         |
|    \\/     M anipulation  | For copyright notice see file Copyright         |
\*---------------------------------------------------------------------------*/
FoamFile
{
    version     2.0;
    format      ascii;
    class       volScalarField;
    location    "0";
    object      tpphi;
}
// * * * * * * * * * * * * * * * * * * * * * * * * * * * * * * * * * * * * * //

dimensions      [0 0 0 0 0 0 0];

internalField   nonuniform List<scalar> 
57344
(
0.0003033336908
0.0003024394792
0.0003010575959
0.0002997749463
0.0002991074785
0.00029938029
0.0003007020129
0.0003029741155
0.0003059065856
0.0003090404824
0.0003117800389
0.0003134351855
0.0003132506682
0.0003104430226
0.0003044388563
0.0002992613822
0.0002939064897
0.0002894466616
0.0002864766781
0.000284444487
0.0002829110277
0.0002815999003
0.000280345457
0.0002790644263
0.000277713247
0.0002762621066
0.0002747081243
0.0002730484022
0.0002712779368
0.0002693983717
0.0002674160405
0.0002653303983
0.0002631353835
0.0002608400017
0.0002584434225
0.0002559319267
0.0002533142537
0.0002505855855
0.0002477300236
0.0002447538392
0.0002416408777
0.0002383828456
0.0002349748965
0.0002313864289
0.00022762307
0.0002236367264
0.0002194299077
0.0002149427979
0.0002101590298
0.0002050124009
0.0001994382435
0.0001933607044
0.0001866610578
0.0001791695908
0.000170701787
0.000160975985
0.0001496130773
0.0001361056919
0.0001198123711
9.996924631e-05
7.612999367e-05
4.936268619e-05
2.401926805e-05
6.290911111e-06
0.0009149888091
0.0009122914708
0.0009081230985
0.000904254059
0.0009022406802
0.0009030636008
0.0009070505026
0.0009139041707
0.0009227497997
0.0009322030211
0.0009404667373
0.0009454593927
0.0009449028069
0.0009364337039
0.000918322478
0.0009027049221
0.0008865521937
0.0008730993762
0.0008641405901
0.0008580106013
0.0008533850086
0.0008494300673
0.0008456461106
0.0008417819546
0.0008377061989
0.0008333289165
0.0008286414174
0.0008236349601
0.0008182944522
0.000812624851
0.0008066452619
0.0008003540408
0.0007937329036
0.000786809015
0.0007795798705
0.0007720040864
0.0007641080248
0.0007558771524
0.0007472635126
0.0007382860217
0.0007288959505
0.0007190682823
0.0007087883978
0.0006979639895
0.0006866120318
0.0006745874533
0.0006618978242
0.0006483627129
0.0006339327487
0.0006184082355
0.0006015941072
0.0005832615567
0.0005630524539
0.0005404548701
0.0005149122223
0.0004855748943
0.00045129933
0.000410555071
0.0003614071964
0.0003015515401
0.0002296417917
0.0001488997326
7.245275463e-05
1.897617522e-05
0.001536701415
0.001532171301
0.001525170621
0.001518672664
0.001515291243
0.001516673318
0.001523369222
0.001534879791
0.00154973581
0.001565612265
0.001579490975
0.001587876018
0.001586941245
0.001572717593
0.001542300231
0.001516070926
0.001488942812
0.001466349133
0.00145130307
0.001441007903
0.001433239333
0.001426597105
0.001420242042
0.001413752286
0.001406907154
0.001399555615
0.001391683074
0.001383274851
0.001374305598
0.001364783641
0.001354741067
0.001344175114
0.001333055075
0.001321426573
0.001309285401
0.001296562056
0.001283300813
0.001269477264
0.001255010865
0.001239933388
0.001224162992
0.001207657663
0.001190392847
0.001172213517
0.001153148181
0.001132953194
0.001111641271
0.001088909382
0.001064674608
0.001038601567
0.001010362648
0.0009795735756
0.0009456328799
0.0009076807884
0.0008647825336
0.0008155112059
0.0007579462306
0.0006895172403
0.0006069745822
0.0005064484655
0.0003856777949
0.0002500734736
0.0001216826364
3.1870024e-05
0.002168636884
0.002162243857
0.002152364298
0.002143194195
0.002138422238
0.002140372662
0.002149822113
0.002166066156
0.002187031393
0.0022094367
0.002229022731
0.002240855943
0.002239536766
0.002219463942
0.002176538092
0.002139522549
0.002101238581
0.002069353736
0.002048120302
0.002033591469
0.002022628241
0.00201325454
0.002004286094
0.001995127565
0.001985467519
0.001975092817
0.001963982863
0.001952116939
0.001939459273
0.001926021616
0.001911849248
0.001896938275
0.001881245359
0.001864834885
0.001847700916
0.001829745369
0.001811030724
0.001791522536
0.001771107142
0.001749829376
0.001727573744
0.001704280952
0.001679916352
0.001654261163
0.001627355616
0.001598855874
0.00156877988
0.001536699989
0.001502499186
0.001465704165
0.001425852597
0.00138240218
0.001334504102
0.001280945027
0.001220405786
0.001150872683
0.001069635347
0.0009730664036
0.0008565798492
0.0007147145251
0.0005442795088
0.0003529108212
0.0001717220084
4.497588722e-05
0.00281096331
0.00280267674
0.002789870964
0.002777984777
0.002771799419
0.002774327536
0.002786575812
0.002807631161
0.002834806072
0.002863847584
0.002889234783
0.002904572862
0.002902862959
0.002876844785
0.00282120477
0.002773225629
0.00272360237
0.002682273584
0.002654751041
0.002635918927
0.002621708511
0.002609558423
0.002597933621
0.002586062437
0.002573541192
0.002560093617
0.002545693017
0.002530312536
0.002513905809
0.002496488065
0.002478117998
0.002458790557
0.002438449572
0.002417178496
0.002394969634
0.002371695851
0.002347438134
0.002322151835
0.002295689626
0.002268109619
0.002239262113
0.002209070252
0.002177489125
0.00214423515
0.002109360476
0.002072419424
0.002033435251
0.001991853648
0.001947522942
0.001899829641
0.001848174476
0.001791854523
0.00172976956
0.001660346876
0.001581876577
0.001491748531
0.001386449589
0.001261277985
0.001110289393
0.0009264051177
0.0007054891214
0.0004574391305
0.0002225841813
5.829725104e-05
0.003463851555
0.003453640305
0.003437860196
0.003423213265
0.003415591264
0.003418706575
0.003433799695
0.003459745465
0.003493232154
0.003529018991
0.003560302747
0.003579203324
0.003577096271
0.003545034987
0.003476471746
0.003417348734
0.003356199731
0.003305271717
0.003271356651
0.003248150497
0.0032306395
0.003215667372
0.003201342537
0.003186714092
0.0031712846
0.003154713625
0.003136968271
0.003118015443
0.003097798008
0.003076334733
0.003053697943
0.003029881416
0.003004815933
0.002978604331
0.002951237129
0.002922557662
0.002892665728
0.002861506309
0.002828897856
0.00279491198
0.002759364209
0.002722159837
0.002683243521
0.002642265814
0.002599290975
0.002553769812
0.002505730982
0.002454491431
0.002399864256
0.002341093472
0.002277440623
0.002208039519
0.002131534395
0.002045987255
0.001949291056
0.001838229425
0.00170847323
0.00155422865
0.0013681707
0.001141576553
0.0008693495149
0.0005636862059
0.0002742826844
7.183765897e-05
0.004127475286
0.004115307708
0.004096504359
0.004079051288
0.004069969023
0.004073681182
0.004091665925
0.004122582528
0.004162484782
0.004205127858
0.004242405128
0.004264926782
0.004262416047
0.004224212286
0.004142513323
0.004072063198
0.003999198933
0.00393851385
0.00389810115
0.003870449033
0.003849583183
0.003831742612
0.003814673346
0.003797242304
0.003778856745
0.003759111011
0.003737965904
0.00371538199
0.003691291188
0.00366571586
0.00363874219
0.003610362761
0.003580495095
0.003549261731
0.003516651369
0.003482477333
0.003446858537
0.003409729425
0.003370873665
0.003330376588
0.00328801838
0.00324368619
0.003197314072
0.00314848563
0.003097277435
0.003043035077
0.002985792704
0.002924736398
0.002859643448
0.002789613035
0.002713765223
0.002631067873
0.002539905478
0.002437968746
0.002322746957
0.002190407528
0.002035791927
0.001851996322
0.001630292367
0.001360286068
0.001035904276
0.0006716803093
0.0003268312695
8.560071276e-05
0.004802011028
0.004787854955
0.004765978655
0.004745673302
0.004735106761
0.004739425583
0.004760349496
0.004796318668
0.004842741977
0.00489235403
0.004935723365
0.004961925637
0.004959004584
0.004914557345
0.004819506668
0.004737543178
0.004652771016
0.004582168428
0.004535151252
0.004502980067
0.0044787042
0.004457948021
0.004438089197
0.004417809473
0.004396419241
0.004373446546
0.004348845783
0.004322571076
0.004294543216
0.004264788221
0.004233406359
0.004200389001
0.004165640189
0.004129302489
0.004091362755
0.004051603801
0.004010163977
0.003966967011
0.00392176122
0.003874645878
0.003825365248
0.003773788036
0.00371983752
0.003663029254
0.003603452322
0.003540345365
0.003473748115
0.003402713635
0.003326982822
0.003245507636
0.003157264338
0.003061052113
0.002954991434
0.002836395615
0.002702343619
0.00254837652
0.002368492748
0.002154660209
0.001896724119
0.001582591838
0.001205197709
0.0007814501673
0.0003802439147
9.95900734e-05
0.005487638207
0.005471460942
0.005446461162
0.005423256628
0.005411181404
0.005416116864
0.005440028276
0.005481133097
0.005534184688
0.005590880309
0.005640441882
0.005670385293
0.005667047174
0.005616253795
0.00550763186
0.005413965691
0.00531708983
0.005236406662
0.005182676412
0.005145911853
0.005118169897
0.005094450168
0.005071755917
0.005048580671
0.005024136359
0.004997883641
0.004969770403
0.004939744214
0.00490771456
0.004873711171
0.004837848632
0.004800117083
0.004760406865
0.004718880897
0.00467552416
0.004630088454
0.004582731886
0.004533367294
0.004481707057
0.004427864625
0.004371547747
0.004312606384
0.004250952858
0.004186033554
0.004117950276
0.004045832961
0.00396972701
0.003888550286
0.003802006689
0.003708898543
0.00360805594
0.003498106612
0.003376902677
0.003241373845
0.003088182015
0.00291223162
0.002706664192
0.002462300819
0.002167536826
0.001808552997
0.001377274845
0.0008930249786
0.0004345348277
0.0001138094621
0.006184539201
0.006166307509
0.006138132889
0.006111981502
0.006098372789
0.006103935026
0.006130883061
0.006177207976
0.006236996838
0.006300892503
0.006356748134
0.006390494199
0.006386732157
0.006329488288
0.006207071942
0.006101510666
0.005992332083
0.00590140258
0.005840848873
0.005799415409
0.005768150372
0.005741418362
0.005715842062
0.005689723683
0.005662175072
0.005632588399
0.005600904928
0.005567065572
0.005530968321
0.005492646682
0.005452229791
0.005409706535
0.005364953329
0.005318153784
0.00526929097
0.005218085171
0.005164714569
0.005109080935
0.005050860121
0.004990179986
0.004926711163
0.004860284558
0.004790801361
0.004717637649
0.004640908156
0.004559632323
0.004473861319
0.004382375581
0.004284841406
0.004179909018
0.004066259939
0.003942347629
0.003805751435
0.00365301116
0.003480364779
0.003282069615
0.003050396212
0.002774999985
0.002442802526
0.002038229651
0.001552181457
0.001006434422
0.0004897184498
0.0001282626611
0.006892899387
0.006872579486
0.006841177822
0.006812031127
0.006796863709
0.00680306303
0.006833097619
0.006884728463
0.006951365377
0.007022579477
0.007084832658
0.007122443906
0.00711825097
0.007054450545
0.006918012966
0.00680036099
0.006678677391
0.006577333072
0.00650984371
0.00646366457
0.00642881852
0.0063990247
0.00637051896
0.006341409054
0.006310705101
0.006277729651
0.006242417241
0.006204702019
0.006164470288
0.006121759393
0.006076713262
0.006029319508
0.005979440393
0.005927280556
0.005872821129
0.005815750358
0.005756266834
0.005694261075
0.005629371809
0.005561741537
0.005491003169
0.005416968243
0.00533952663
0.005257982947
0.005172465068
0.005081880124
0.004986285144
0.00488432088
0.004775615408
0.004658664352
0.004531998218
0.004393893331
0.004241651784
0.004071417055
0.00387899623
0.003657988882
0.003399780242
0.003092840884
0.002722594438
0.002271682894
0.001729964071
0.001121708665
0.0005458094601
0.0001429535151
0.007612907187
0.007590464742
0.007555782971
0.007523591716
0.007506839964
0.007513686843
0.007546858739
0.007603882758
0.007677480327
0.007756133199
0.007824889127
0.007866429112
0.007861798197
0.007791333405
0.007640644041
0.007510702558
0.007376308322
0.007264377935
0.007189838874
0.007138836025
0.007100350081
0.007067444104
0.007035960756
0.007003810131
0.006969898953
0.006933479004
0.006894477986
0.006852823165
0.00680838897
0.006761216647
0.006711465157
0.00665912082
0.006604031509
0.006546423241
0.006486275176
0.006423242994
0.006357546032
0.006289063373
0.006217396004
0.006142701314
0.006064573867
0.005982805515
0.005897274627
0.00580721318
0.005712762407
0.005612715281
0.005507134789
0.0053945197
0.00527445924
0.005145291892
0.005005394663
0.00485286383
0.004684719671
0.004496702827
0.004284182406
0.004040089415
0.003754909217
0.003415908063
0.003006986988
0.002508974825
0.001910669977
0.00123887837
0.0006028227787
0.0001578859318
0.008344754125
0.008320154234
0.008282138423
0.008246852545
0.008228490407
0.008235995493
0.008272356282
0.008334862156
0.008415534836
0.008501748795
0.008577114395
0.008622647718
0.008617571622
0.008540332882
0.00837515739
0.008232724321
0.008085410447
0.007962719925
0.007881015245
0.007825109371
0.007782923681
0.007746854374
0.007712344457
0.007677103116
0.007639931975
0.00760001089
0.00755726061
0.007511601413
0.007462895652
0.007411188541
0.007356654321
0.007299277999
0.007238892821
0.007175746532
0.00710981629
0.007040724674
0.006968712107
0.006893646045
0.006815089121
0.006733213853
0.006647575828
0.006557946889
0.006464193712
0.006365474444
0.006261943892
0.006152278997
0.006036548801
0.005913107755
0.005781505596
0.005639921082
0.005486575199
0.005319381213
0.005135072955
0.004928981603
0.004696031086
0.004428472853
0.004115877602
0.003744287458
0.003296055824
0.002750168563
0.002094347242
0.001357974705
0.0006607735712
0.0001730638832
0.009088634873
0.009061842061
0.009020437386
0.008982006002
0.008962006998
0.008970181113
0.009009783231
0.009077861099
0.009165725225
0.009259624601
0.009341708555
0.009391300879
0.009385772281
0.009301648208
0.009121748392
0.008966618338
0.008806172386
0.0086725448
0.008583556677
0.008522667157
0.008476720886
0.008437436234
0.008399849981
0.008361467104
0.008320982396
0.008277502605
0.008230941415
0.008181211996
0.008128164433
0.008071847968
0.008012452375
0.007949961326
0.0078841932
0.007815417829
0.007743610333
0.007668359648
0.007589927627
0.007508169912
0.007422610148
0.00733343623
0.00724016413
0.007142545352
0.007040434687
0.006932915236
0.006820155606
0.006700714797
0.006574668004
0.006440222988
0.00629688935
0.006142683494
0.005975667819
0.005793569573
0.005592831428
0.005368368368
0.005114651823
0.004823242507
0.004482781415
0.004078066419
0.003589877839
0.002995328266
0.002281044725
0.001479029348
0.0007196772526
0.0001884914068
0.009844747303
0.009815725512
0.00977087625
0.009729247637
0.009707584852
0.009716438998
0.009759335742
0.009833077224
0.009928251047
0.01002996221
0.01011887499
0.01017259306
0.01016660452
0.01007548189
0.00988061564
0.009712579824
0.009538785864
0.009394041373
0.009297650046
0.009231694933
0.009181926246
0.009139373379
0.009098660206
0.009057084135
0.009013231375
0.008966134362
0.008915699599
0.008861833031
0.008804372273
0.008743370662
0.008679033762
0.008611343883
0.008540104298
0.008465607285
0.008387825895
0.008306314866
0.008221357836
0.008132798438
0.008040120684
0.007943528105
0.007842496402
0.007736756408
0.007626150832
0.007509686495
0.007387546034
0.007258168564
0.007121635537
0.006976005613
0.006820747594
0.006653712863
0.006472802623
0.006275555044
0.006058116855
0.00581498
0.005540155968
0.005224503385
0.004855718252
0.004417333729
0.003888531189
0.003244519148
0.002470812088
0.001602074502
0.0007795494913
0.0002041726062
0.01061329254
0.01058200512
0.01053365463
0.01048877622
0.01046542229
0.01047496765
0.0105212132
0.01060071142
0.01070331513
0.01081296653
0.01090882042
0.01096673207
0.01096027603
0.01086203978
0.010651961
0.01047080721
0.01028344576
0.01012740157
0.0100234853
0.009952381302
0.009898727347
0.009852852525
0.009808961016
0.009764139245
0.009716863053
0.00966608934
0.00961171731
0.009553645566
0.009491699046
0.009425935251
0.009356575792
0.0092836016
0.009206800588
0.009126487852
0.009042634339
0.008954760027
0.008863170696
0.008767697773
0.008667784989
0.008563651762
0.008454732865
0.008340738117
0.008221497948
0.008095941645
0.007964266102
0.007824788582
0.007677596896
0.007520598149
0.007353219675
0.007173145123
0.006978111849
0.006765465837
0.006531053003
0.006268935297
0.005972656708
0.005632362224
0.005234787316
0.004762179635
0.004192095317
0.003497807492
0.002663699808
0.001727142896
0.0008404062133
0.0002201116526
0.01139447502
0.01136088472
0.01130897543
0.01126079378
0.01123572091
0.01124596885
0.01129561826
0.01138096788
0.01149112365
0.01160884585
0.01171175499
0.01177392917
0.01176699794
0.01166153109
0.01143598964
0.01124150217
0.01104035014
0.01087282045
0.01076125552
0.01068491797
0.01062731486
0.01057806346
0.01053094135
0.01048282051
0.01043206459
0.01037755372
0.01031917969
0.01025683362
0.01019032758
0.0101197233
0.01004525869
0.009966913296
0.00988445941
0.009798235322
0.009708209842
0.009613867615
0.009515536929
0.009413036801
0.009305770021
0.009193972155
0.009077036374
0.008954651139
0.008826634397
0.008691836628
0.008550469217
0.008400725572
0.008242699965
0.008074145458
0.007894447232
0.007701118443
0.007491729909
0.007263432266
0.007011765673
0.006730355013
0.006412269087
0.006046927513
0.005620089439
0.005112695866
0.004500650971
0.003755260674
0.002859759195
0.001854267798
0.0009022636066
0.0002363127859
0.01218850254
0.01215257148
0.01209704488
0.01204550568
0.0120186856
0.01202964766
0.01208275691
0.01217405415
0.01229188616
0.01241781186
0.01252789226
0.01259439907
0.01258698483
0.0124741685
0.01223291011
0.01202486973
0.01180970036
0.0116304963
0.01151115694
0.01142949978
0.01136788258
0.01131519908
0.01126479326
0.0112133191
0.01115902624
0.01110071677
0.01103827492
0.01097158424
0.01090044371
0.01082491934
0.01074526565
0.01066146073
0.01057326102
0.01048102838
0.01038472945
0.01028381295
0.01017863006
0.01006898718
0.009954245483
0.009834656949
0.009709572462
0.009578658773
0.009441721145
0.009297529952
0.009146311309
0.008986132731
0.008817095061
0.008636794781
0.008444574229
0.008237773264
0.008013793425
0.00776958679
0.007500382732
0.007199361884
0.006859110042
0.006468309527
0.00601172711
0.005468975659
0.004814280226
0.004016947175
0.003059042399
0.001983483023
0.0009651381251
0.0002527803155
0.0129955863
0.01295727601
0.01289807261
0.01284312065
0.01281452463
0.01282621257
0.01288283853
0.01298018118
0.01310581566
0.01324007976
0.01335744933
0.01342836001
0.01342045482
0.01330016815
0.0130429344
0.01282111825
0.01259170105
0.01240063068
0.01227338904
0.0121863248
0.01212062751
0.01206445548
0.01201071194
0.01195582933
0.01189794137
0.01183577083
0.01176919428
0.01169808756
0.01162223633
0.01154171098
0.01145678287
0.01136742866
0.01127338864
0.01117504865
0.01107237311
0.01096477425
0.01085262648
0.0107357234
0.01061338387
0.01048587657
0.01035250938
0.01021292701
0.01006692181
0.009913182732
0.009751950874
0.009581165781
0.009400934976
0.009208695786
0.009003747002
0.008783252337
0.008544441267
0.008284064047
0.007997034156
0.007676080667
0.007313298433
0.006896620355
0.006409804506
0.005831113785
0.005133066509
0.004282936606
0.00326160243
0.002114822942
0.001029046494
0.0002695186218
0.01381594101
0.01377521235
0.0137122717
0.01365385085
0.01362344969
0.01363587544
0.01369607596
0.01379956343
0.01393312866
0.01407586827
0.01420064686
0.01427603383
0.01426762962
0.01413974978
0.01386627798
0.01363045955
0.01338656023
0.01318342842
0.01304815457
0.01295559435
0.01288574988
0.01282603195
0.01276889582
0.01271054871
0.01264900653
0.01258291143
0.0125121322
0.01243653682
0.01235589743
0.01227028887
0.01217999962
0.01208500487
0.01198502852
0.01188048075
0.01177132375
0.01165693264
0.01153770547
0.01141342281
0.01128336052
0.01114780423
0.01100601816
0.01085762456
0.01070240269
0.01053895874
0.01036754901
0.010185983
0.009994375012
0.009790000601
0.009572114293
0.009337700761
0.00908381459
0.008807000891
0.008501852054
0.008160638171
0.007774955077
0.007331973928
0.006814427517
0.006199206574
0.005457094617
0.00455329972
0.003467493171
0.002248322494
0.001094005712
0.0002865321572
0.01464978486
0.01460659807
0.01453985872
0.01447791196
0.01444567597
0.01445885166
0.01452268551
0.01463241883
0.01477404522
0.0149253997
0.01505770915
0.01513764601
0.01512873457
0.0149931367
0.01470315986
0.0144531089
0.01419448935
0.01397909777
0.01383565963
0.01373751306
0.0136634532
0.01360013108
0.01353954656
0.01347767799
0.01341242151
0.01334233733
0.0132672863
0.01318712846
0.01310162218
0.01301084682
0.01291510828
0.01281438023
0.01270836993
0.01259751232
0.01248176728
0.01236047224
0.01223404927
0.01210226568
0.01196435364
0.01182061603
0.01167027263
0.01151292292
0.01134833282
0.01117502442
0.01099326948
0.01080074528
0.01059757302
0.01038086385
0.01014982729
0.009901266019
0.009632056865
0.009338536422
0.009014970708
0.008653163288
0.008244202772
0.00777448605
0.007225703772
0.006573351939
0.005786450741
0.004828108433
0.003676769387
0.002384017188
0.001160033059
0.0003038254474
0.01549733966
0.01545165433
0.01538105381
0.01531552316
0.01528142218
0.01529536014
0.01536288705
0.01547896893
0.01562878904
0.01578890005
0.01592886418
0.01601342574
0.01600399874
0.01586055593
0.01555380265
0.01528928513
0.01501570329
0.01478785036
0.0146361137
0.01453228891
0.01445394436
0.01438695877
0.01432286918
0.01425742123
0.01418838938
0.01411425051
0.01403485745
0.01395006213
0.01385960893
0.01376358181
0.01366230437
0.01355574877
0.0134436053
0.01332633409
0.01320389269
0.01307558019
0.01294184309
0.01280243524
0.01265654438
0.01250449091
0.01234544949
0.0121789964
0.01200488404
0.01182154897
0.0116292787
0.01142561613
0.01121068946
0.01098144271
0.01073703966
0.01047409802
0.01018931393
0.00987881203
0.00953652661
0.009153787031
0.008721166342
0.008224274431
0.007643742673
0.006953649402
0.006121222493
0.005107435846
0.003889486747
0.002521943119
0.001227146099
0.0003214030925
0.01635883087
0.0163106059
0.01623608073
0.01616690725
0.01613091061
0.01614562338
0.01621690409
0.01633943892
0.01649758746
0.01666659898
0.01681434367
0.01690360597
0.01689365493
0.01674223819
0.01641843261
0.01613921066
0.01585042052
0.01560990133
0.01544972968
0.01534013331
0.01525743362
0.01518672432
0.01511907201
0.01504998584
0.01497711654
0.01489885632
0.01481504982
0.01472554077
0.01463005931
0.01452869408
0.01442178667
0.01430930767
0.0141909302
0.01406713992
0.01393789205
0.01380244671
0.01366127522
0.01351411773
0.01336011686
0.01319961079
0.01303172832
0.01285602217
0.01267223097
0.01247870438
0.01227574587
0.01206076177
0.01183388742
0.01159189692
0.0113339076
0.01105634914
0.01075573401
0.01042797143
0.01006665849
0.009662642563
0.009205972655
0.008681458712
0.008068655414
0.007340200122
0.006461498918
0.005391356258
0.004105701833
0.002662136976
0.001295362683
0.0003392697679
0.01723448763
0.01718368127
0.01710516691
0.01703229071
0.01699436724
0.01700986755
0.01708496378
0.01721405766
0.0173806716
0.01755872998
0.01771438315
0.01780842349
0.01779793979
0.017638418
0.01729727973
0.01700311157
0.01669886305
0.01644546933
0.016276724
0.01616126115
0.0160741347
0.01599964047
0.01592836686
0.01585558264
0.01577881279
0.01569636345
0.01560807095
0.01551377065
0.01541317825
0.01530638714
0.01519375718
0.0150752574
0.0149505434
0.01482012687
0.01468396061
0.01454126514
0.01439253701
0.01423750247
0.01407525822
0.01390616058
0.01372929168
0.01354418031
0.01335055112
0.01314666542
0.01293284295
0.01270635116
0.01246733266
0.01221238887
0.01194058988
0.01164817425
0.01133146776
0.01098616068
0.01060550736
0.01017986524
0.009698750668
0.009146160503
0.008500555023
0.00773310692
0.00680737053
0.005679945191
0.004325472157
0.002804636049
0.001364700957
0.0003574302261
0.01812454287
0.01807111269
0.01798854354
0.01791190373
0.01787202174
0.01788832255
0.01796729704
0.01810305783
0.01827827635
0.01846553035
0.01862922206
0.018728119
0.01871709388
0.01854933377
0.01819057781
0.01788121767
0.01756125658
0.01729477664
0.01711731665
0.01699589085
0.01690426486
0.01682592347
0.01675096901
0.01667442593
0.01659369138
0.01650698405
0.01641413179
0.01631496145
0.01620917407
0.01609686786
0.01597842125
0.01585380169
0.01572264699
0.01558549524
0.01544229683
0.01529223202
0.01513582299
0.01497278187
0.01480215871
0.01462432821
0.01443832512
0.01424365389
0.01404002495
0.01382560981
0.01360074471
0.01336255602
0.01311119368
0.01284308362
0.01255724788
0.01224973078
0.01191666836
0.01155352829
0.01115321656
0.01070559265
0.01019963147
0.00961850342
0.00893955639
0.008132474314
0.007158929335
0.005973279414
0.004548856181
0.002949478246
0.001435179365
0.0003758892982
0.01902923336
0.01897313619
0.01888644559
0.01880598029
0.01876410758
0.01878122205
0.01886413857
0.01900667588
0.01919064047
0.0193872413
0.01955910371
0.01966293712
0.01965136167
0.01947522778
0.01909856444
0.01877376253
0.01843783051
0.01815804916
0.01797173122
0.01784424443
0.01774804491
0.01766579308
0.01758709726
0.01750673352
0.01742196909
0.01733093373
0.01723344673
0.01712932629
0.01701825851
0.01690034651
0.01677598761
0.01664514764
0.01650744632
0.01636344861
0.01621310242
0.01605554709
0.01589133088
0.01572015153
0.01554101167
0.01535430472
0.01515901725
0.01495462896
0.01474083583
0.01451571812
0.01427962883
0.0140295509
0.01376564176
0.01348414892
0.01318404563
0.01286117875
0.01251149144
0.01213022516
0.01170993179
0.01123996462
0.01070874828
0.0100986131
0.009385776284
0.008538408532
0.007516268844
0.006271436951
0.004775913323
0.003096702091
0.001506816654
0.000394651894
0.01994879974
0.01988999174
0.01979911191
0.01971475821
0.01967086205
0.01968880356
0.01977572692
0.01992515219
0.02011800667
0.02032410801
0.02050427548
0.02061312652
0.0206009917
0.02041634634
0.02002148116
0.01968098356
0.019328818
0.01903551653
0.01884019499
0.01870654754
0.01860569929
0.01851947273
0.01843697403
0.01835272679
0.01826386622
0.01816843168
0.01806623373
0.01795708178
0.01784064678
0.01771703681
0.01758666841
0.01744950574
0.01730515016
0.01715419392
0.01699658243
0.01683141341
0.01665926163
0.01647981023
0.01629201364
0.01609628429
0.01589155977
0.01567729465
0.01545317021
0.01521717393
0.01496967589
0.01470751322
0.01443085097
0.01413575531
0.01382114986
0.0134826808
0.01311609524
0.01271640469
0.01227580112
0.01178312332
0.01122623654
0.01058661726
0.009839333404
0.008951017554
0.007879484112
0.006574497112
0.005006703982
0.003246346749
0.00157963188
0.0004137230045
0.02088348661
0.0208219232
0.02072678527
0.02063847923
0.02059252635
0.02061130849
0.02070230459
0.02085873108
0.02106062161
0.02127637968
0.02146498877
0.02157893995
0.02156623657
0.02137293978
0.02095957347
0.0206031221
0.02023445607
0.01992741217
0.01972293897
0.01958302957
0.01947745614
0.0193871895
0.01930082538
0.0192126308
0.01911960672
0.01901970067
0.01891271431
0.01879844812
0.01867655764
0.01854715601
0.0184106793
0.01826708997
0.01811597071
0.01795794152
0.01779294525
0.01762003736
0.01743981953
0.01725196006
0.0170553644
0.01685046428
0.01663614754
0.01641184318
0.01617721754
0.01593016383
0.01567106945
0.01539662333
0.01510699826
0.0147980761
0.01446873004
0.01411440225
0.01373064059
0.01331222282
0.01285097508
0.01233521321
0.0117522339
0.01108264571
0.0103003484
0.009370411138
0.008248671756
0.006882540515
0.005241289549
0.003398452026
0.001653644412
0.0004331077026
0.0218335426
0.02176917848
0.02166971241
0.02157738906
0.02152934564
0.02154898224
0.02164411804
0.02180766086
0.02201873603
0.02224430962
0.02244149914
0.02256063431
0.02254735302
0.02234526254
0.02191309089
0.02154042342
0.02115498561
0.0208339733
0.02062019797
0.02047392364
0.02036354735
0.0202691742
0.02017888109
0.02008667426
0.01998941823
0.01988496713
0.01977311362
0.0196536491
0.01952621344
0.01939092492
0.01924823944
0.01909811778
0.01894012363
0.0187749052
0.01860240272
0.0184216287
0.01823321219
0.0180368064
0.01783126697
0.01761704531
0.01739297861
0.01715846993
0.01691317044
0.01665487746
0.01638399606
0.01609706452
0.01579426349
0.01547128748
0.01512695842
0.01475651114
0.01435529094
0.01391783803
0.01343560666
0.01289638115
0.01228688026
0.01158683039
0.01076894389
0.009796700837
0.008623929975
0.007195649095
0.005479732421
0.003553058378
0.001728873937
0.0004528111446
0.02279922042
0.02273200953
0.02262814417
0.02253173744
0.0224815691
0.02250207421
0.02260141778
0.02277219395
0.02299260479
0.0232281553
0.02343406633
0.02355847074
0.02354460202
0.02333357327
0.02288228706
0.02249313684
0.02209065147
0.02175544108
0.02153221066
0.02137946675
0.02126420861
0.02116566142
0.02107137473
0.02097508968
0.0208735321
0.02076446122
0.02064766053
0.02052291221
0.02038984018
0.02024856797
0.02009957165
0.01994281024
0.01977782814
0.01960530225
0.01942517015
0.01923640066
0.01903965066
0.01883455801
0.01861992777
0.01839623127
0.01816225431
0.01791737352
0.01766122465
0.01739150761
0.01710864537
0.01680902311
0.01649282946
0.01615556852
0.0157960101
0.01540917826
0.01499021246
0.0145334114
0.01402985138
0.01346677641
0.01283031785
0.0120993054
0.01124524453
0.01023000004
0.009005358589
0.007513906139
0.005722096024
0.003710206933
0.001805340466
0.0004728385715
0.02378077695
0.02371067248
0.0236023355
0.02350177824
0.02344945005
0.02347083795
0.02357445847
0.02375258694
0.02398248694
0.02422817842
0.02444295437
0.02457271467
0.02455824887
0.02433813487
0.0238674198
0.0234615158
0.02304170255
0.02269206062
0.02245921963
0.02229989977
0.02217967951
0.02207688965
0.02197854371
0.02187811337
0.02177218352
0.0216584169
0.02153658769
0.02140646867
0.0212676676
0.02112031331
0.02096490237
0.02080139203
0.0206293071
0.02044935359
0.0202614664
0.02006456997
0.01985934945
0.01964542712
0.01942155657
0.01918822944
0.01894417926
0.01868875582
0.01842157918
0.01814025023
0.01784521015
0.01753268849
0.01720288201
0.01685110124
0.01647606304
0.01607257724
0.01563557405
0.0151591067
0.0146338673
0.01404655072
0.01338269123
0.01262020709
0.01172937701
0.01067042402
0.009393059063
0.007837396308
0.00596844483
0.003869939494
0.001883064339
0.0004931953109
0.02477847328
0.02470542766
0.02459254551
0.02448776949
0.02443324592
0.02445553113
0.02456349894
0.02474910059
0.0249886458
0.02524464499
0.02546843163
0.02560363588