/*--------------------------------*- C++ -*----------------------------------*\
| =========                 |                                                 |
| \\      /  F ield         | foam-extend: Open Source CFD                    |
|  \\    /   O peration     | Version:     3.2                                |
|   \\  /    A nd           | Web:         http://www.foam-extend.org         |
|    \\/     M anipulation  | For copyright notice see file Copyright         |
\*---------------------------------------------------------------------------*/
FoamFile
{
    version     2.0;
    format      ascii;
    class       volVectorField;
    location    "0";
    object      tppsi;
}
// * * * * * * * * * * * * * * * * * * * * * * * * * * * * * * * * * * * * * //

dimensions      [0 0 0 0 0 0 0];

internalField   nonuniform List<vector> 
57344
(
(1.032798422e-07 -3.804493046e-10 1.555310011e-05)
(1.026263372e-07 -9.583072483e-10 3.5358584e-05)
(1.05786893e-07 -1.550548968e-09 5.546311785e-05)
(1.027985351e-07 -2.084362988e-09 7.36763764e-05)
(9.309684899e-08 -2.539752013e-09 8.966754819e-05)
(8.079591443e-08 -2.906320914e-09 0.000103424876)
(6.596216731e-08 -3.180544476e-09 0.000115075445)
(5.206899476e-08 -3.370824353e-09 0.0001248160247)
(4.238089818e-08 -3.492759212e-09 0.0001328817384)
(2.669119943e-08 -3.561606182e-09 0.0001395237371)
(2.968326747e-09 -3.619772288e-09 0.0001449688789)
(-1.686826182e-08 -3.720172483e-09 0.0001494459972)
(-3.007014916e-08 -3.92743478e-09 0.0001531612679)
(-3.518045394e-08 -4.290134063e-09 0.0001563259817)
(-4.067060675e-08 -4.667387359e-09 0.000159072808)
(-1.988252501e-08 -4.660657859e-09 0.0001606644409)
(-3.107665467e-08 -4.263431008e-09 0.0001621951949)
(-3.818553405e-08 -3.723764304e-09 0.0001636938296)
(-4.03081211e-08 -3.187164188e-09 0.0001649094183)
(-3.902270687e-08 -2.714016175e-09 0.0001658672061)
(-3.578639668e-08 -2.326256049e-09 0.0001666081129)
(-3.1568808e-08 -2.02774074e-09 0.0001671605766)
(-2.7020607e-08 -1.80202292e-09 0.0001675541331)
(-2.249283349e-08 -1.627679835e-09 0.0001678106199)
(-1.817857133e-08 -1.487682628e-09 0.0001679440074)
(-1.419384416e-08 -1.369413042e-09 0.0001679631609)
(-1.058108291e-08 -1.262672658e-09 0.0001678843772)
(-7.353755512e-09 -1.161463297e-09 0.0001677156569)
(-4.513991464e-09 -1.06230608e-09 0.0001674629754)
(-2.046547655e-09 -9.639572431e-10 0.0001671323304)
(7.696187053e-11 -8.669425734e-10 0.0001667308225)
(1.880238679e-09 -7.722615935e-10 0.0001662627212)
(3.380228269e-09 -6.80998621e-10 0.0001657276409)
(4.614740348e-09 -5.94046923e-10 0.000165131963)
(5.606672373e-09 -5.122230237e-10 0.0001644771026)
(6.36837666e-09 -4.364047163e-10 0.0001637597586)
(6.933024083e-09 -3.669317862e-10 0.0001629840528)
(7.320201406e-09 -3.040864001e-10 0.0001621499272)
(7.540904084e-09 -2.483727829e-10 0.000161251252)
(7.621697507e-09 -1.994745796e-10 0.0001602914601)
(7.574821112e-09 -1.573705432e-10 0.0001592636413)
(7.417375764e-09 -1.218037446e-10 0.0001581652244)
(7.166949106e-09 -9.231171408e-11 0.0001569933505)
(6.832528035e-09 -6.866997266e-11 0.0001557361342)
(6.432669821e-09 -5.013115574e-11 0.0001543942989)
(5.974325924e-09 -3.660139708e-11 0.0001529478947)
(5.474037412e-09 -2.740560207e-11 0.000151396693)
(4.939649606e-09 -2.250150049e-11 0.0001497154983)
(4.384354624e-09 -2.133720101e-11 0.0001478974551)
(3.817019974e-09 -2.366271971e-11 0.00014591432)
(3.247729813e-09 -2.907708976e-11 0.0001437397821)
(2.68537858e-09 -3.708196944e-11 0.000141345774)
(2.138433447e-09 -4.721013931e-11 0.0001386856639)
(1.614872779e-09 -5.884875098e-11 0.0001356985464)
(1.121834656e-09 -7.11344022e-11 0.0001323194451)
(6.657948902e-10 -8.295219559e-11 0.0001284484342)
(2.530152519e-10 -9.269183803e-11 0.0001239478812)
(-1.096632495e-10 -9.804360872e-11 0.0001186162427)
(-4.133144821e-10 -9.582064566e-11 0.0001121398398)
(-6.412473242e-10 -8.182267233e-11 0.0001039583414)
(-7.61900144e-10 -5.180090538e-11 9.306198857e-05)
(-7.242040935e-10 -3.00005509e-12 7.774629411e-05)
(-4.842717744e-10 5.921416378e-11 5.577539399e-05)
(-1.292348343e-10 7.154137542e-11 2.443297635e-05)
(3.115377641e-07 -1.147603668e-09 4.691504103e-05)
(3.095665036e-07 -2.890679257e-09 0.0001066571556)
(3.191001403e-07 -4.677142688e-09 0.0001673013374)
(3.100859285e-07 -6.287362286e-09 0.0002222405949)
(2.808213449e-07 -7.661017356e-09 0.0002704770542)
(2.43716276e-07 -8.766751577e-09 0.0003119752504)
(1.989711224e-07 -9.593931339e-09 0.0003471185283)
(1.570631583e-07 -1.016789976e-08 0.0003765004325)
(1.278395665e-07 -1.053570932e-08 0.0004008301987)
(8.051248351e-08 -1.074338228e-08 0.0004208654096)
(8.953788643e-09 -1.091883703e-08 0.0004372903699)
(-5.088215143e-08 -1.12216885e-08 0.0004507953424)
(-9.070489302e-08 -1.184688342e-08 0.0004620022449)
(-1.061198364e-07 -1.294094516e-08 0.0004715484241)
(-1.226805698e-07 -1.407890825e-08 0.0004798340689)
(-5.997450474e-08 -1.405860909e-08 0.0004846351392)
(-9.374095958e-08 -1.286039691e-08 0.0004892525713)
(-1.151844895e-07 -1.123252302e-08 0.0004937731175)
(-1.215871525e-07 -9.613899324e-09 0.0004974398719)
(-1.177097736e-07 -8.186675279e-09 0.000500328984)
(-1.079476282e-07 -7.017018936e-09 0.0005025638875)
(-9.522551207e-08 -6.1165645e-09 0.0005042303627)
(-8.150612269e-08 -5.435699548e-09 0.0005054175035)
(-6.784835169e-08 -4.909803557e-09 0.0005061911812)
(-5.483462547e-08 -4.487509953e-09 0.0005065935372)
(-4.281492285e-08 -4.130756478e-09 0.0005066513125)
(-3.191723421e-08 -3.808780186e-09 0.0005064136659)
(-2.218218484e-08 -3.503487912e-09 0.0005059047307)
(-1.361619826e-08 -3.204385812e-09 0.0005051425314)
(-6.17329449e-09 -2.907722144e-09 0.0005041451596)
(2.321511009e-10 -2.615082916e-09 0.0005029340339)
(5.67163293e-09 -2.329483131e-09 0.0005015220328)
(1.019626613e-08 -2.05419357e-09 0.0004999079937)
(1.392010154e-08 -1.791908723e-09 0.0004981111652)
(1.691220802e-08 -1.545091589e-09 0.0004961358161)
(1.920984563e-08 -1.316389982e-09 0.0004939719887)
(2.091307244e-08 -1.106828843e-09 0.0004916321163)
(2.208097079e-08 -9.172593138e-10 0.0004891160241)
(2.274670786e-08 -7.492023595e-10 0.0004864052215)
(2.299041661e-08 -6.01703713e-10 0.0004835100637)
(2.284901664e-08 -4.746992841e-10 0.000480409707)
(2.237409171e-08 -3.674140611e-10 0.0004770963947)
(2.161869395e-08 -2.784530301e-10 0.0004735615038)
(2.060993183e-08 -2.071390631e-10 0.0004697691825)
(1.940378229e-08 -1.512177773e-10 0.0004657216127)
(1.802121402e-08 -1.104060305e-10 0.0004613586168)
(1.651212221e-08 -8.266743841e-11 0.0004566795052)
(1.490017181e-08 -6.78744952e-11 0.0004516082771)
(1.322515612e-08 -6.436245208e-11 0.0004461242532)
(1.151382344e-08 -7.137724684e-11 0.000440142239)
(9.796592083e-09 -8.770938585e-11 0.0004335828693)
(8.100291605e-09 -1.118556497e-10 0.0004263614801)
(6.450462749e-09 -1.424066975e-10 0.0004183374096)
(4.871171799e-09 -1.77513907e-10 0.0004093269397)
(3.383950373e-09 -2.145728744e-10 0.0003991340729)
(2.008332382e-09 -2.502205754e-10 0.0003874573889)
(7.632061027e-10 -2.795996523e-10 0.0003738817271)
(-3.307929488e-10 -2.957429639e-10 0.0003577991431)
(-1.246739605e-09 -2.890375224e-10 0.0003382634426)
(-1.934286046e-09 -2.468134328e-10 0.0003135844184)
(-2.298228408e-09 -1.56254482e-10 0.0002807161904)
(-2.184520418e-09 -9.04949538e-12 0.00023451727)
(-1.460778237e-09 1.786161539e-10 0.0001682433006)
(-3.898295201e-10 2.15800486e-10 7.370068216e-05)
(5.232200854e-07 -1.927372403e-09 7.879266851e-05)
(5.199094015e-07 -4.854825392e-09 0.0001791280946)
(5.35920912e-07 -7.855147205e-09 0.0002809785206)
(5.20781763e-07 -1.055947179e-08 0.0003732476652)
(4.716326076e-07 -1.286649202e-08 0.0004542596235)
(4.093155485e-07 -1.472354571e-08 0.000523954833)
(3.341671529e-07 -1.611277397e-08 0.0005829771122)
(2.637837482e-07 -1.707673994e-08 0.0006323233044)
(2.147034377e-07 -1.769446714e-08 0.0006731845541)
(1.352187547e-07 -1.804324882e-08 0.0007068332027)
(1.50376699e-08 -1.833792079e-08 0.0007344185235)
(-8.54553338e-08 -1.884655246e-08 0.0007570997957)
(-1.523366582e-07 -1.98965521e-08 0.0007759215155)
(-1.782256801e-07 -2.173400214e-08 0.0007919540909)
(-2.060390284e-07 -2.364518342e-08 0.0008058696296)
(-1.007257197e-07 -2.361109149e-08 0.0008139329101)
(-1.57435658e-07 -2.159872332e-08 0.0008216877749)
(-1.934495441e-07 -1.886474878e-08 0.0008292799221)
(-2.042026606e-07 -1.614630971e-08 0.0008354381467)
(-1.976906973e-07 -1.37493217e-08 0.0008402903402)
(-1.812954119e-07 -1.178491236e-08 0.0008440438061)
(-1.599289277e-07 -1.027262107e-08 0.0008468426106)
(-1.368875475e-07 -9.129124972e-09 0.0008488363847)
(-1.139496538e-07 -8.245895466e-09 0.0008501357575)
(-9.209341766e-08 -7.536663646e-09 0.0008508115046)
(-7.190661991e-08 -6.937504875e-09 0.0008509085369)
(-5.360421732e-08 -6.396753537e-09 0.0008505094152)
(-3.725443906e-08 -5.8840226e-09 0.000849654671)
(-2.286807328e-08 -5.38168791e-09 0.0008483745757)
(-1.036789771e-08 -4.883448507e-09 0.000846699514)
(3.898921185e-10 -4.391968052e-09 0.000844665458)
(9.525369339e-09 -3.91231017e-09 0.0008422940366)
(1.712438058e-08 -3.449968059e-09 0.0008395832971)
(2.337847143e-08 -3.009467048e-09 0.0008365655674)
(2.840364137e-08 -2.594943684e-09 0.0008332480167)
(3.226246777e-08 -2.210844906e-09 0.0008296139214)
(3.51229957e-08 -1.858892079e-09 0.0008256841626)
(3.708445253e-08 -1.540514672e-09 0.0008214584472)
(3.820254171e-08 -1.258267112e-09 0.0008169057202)
(3.861184464e-08 -1.010546728e-09 0.0008120433733)
(3.837436682e-08 -7.972458835e-10 0.0008068363997)
(3.757674198e-08 -6.170629651e-10 0.0008012717724)
(3.630806984e-08 -4.676550806e-10 0.0007953350093)
(3.461387844e-08 -3.478850103e-10 0.000788965898)
(3.258817967e-08 -2.539665731e-10 0.0007821681031)
(3.026618994e-08 -1.854242387e-10 0.0007748405577)
(2.7731707e-08 -1.388379489e-10 0.0007669821038)
(2.502447558e-08 -1.139935612e-10 0.0007584650998)
(2.221132752e-08 -1.080951703e-10 0.0007492548152)
(1.933718599e-08 -1.198763473e-10 0.0007392081682)
(1.645313775e-08 -1.473057769e-10 0.0007281918665)
(1.360424242e-08 -1.878588387e-10 0.0007160637193)
(1.083339505e-08 -2.391685793e-10 0.0007025874883)
(8.181014371e-09 -2.981302824e-10 0.0006874546236)
(5.683262216e-09 -3.603699154e-10 0.0006703359521)
(3.37294531e-09 -4.202393608e-10 0.0006507252458)
(1.281786057e-09 -4.695808048e-10 0.0006279252525)
(-5.555586991e-10 -4.966931034e-10 0.0006009149445)
(-2.093868794e-09 -4.854314777e-10 0.0005681052114)
(-3.248586294e-09 -4.145171478e-10 0.0005266573915)
(-3.859818625e-09 -2.62425596e-10 0.0004714560032)
(-3.668848825e-09 -1.519840704e-11 0.0003938660419)
(-2.453341464e-09 2.999814792e-10 0.0002825605248)
(-6.547091824e-10 3.624316591e-10 0.0001237785003)
(7.383831136e-07 -2.719962929e-09 0.000111194462)
(7.33710982e-07 -6.851268116e-09 0.0002527906782)
(7.563068825e-07 -1.108540787e-08 0.0003965249054)
(7.349420834e-07 -1.490182789e-08 0.000526737755)
(6.65581393e-07 -1.815756066e-08 0.0006410641421)
(5.77637781e-07 -2.077828781e-08 0.0007394200104)
(4.715862209e-07 -2.273880637e-08 0.0008227139348)
(3.72259152e-07 -2.409918266e-08 0.0008923526893)
(3.029956175e-07 -2.49709369e-08 0.0009500172507)
(1.908245648e-07 -2.546314757e-08 0.0009975031838)
(2.122158884e-08 -2.587899706e-08 0.001036432376)
(-1.205970054e-07 -2.659679259e-08 0.001068440834)
(-2.149818386e-07 -2.807858204e-08 0.001095002582)
(-2.515171651e-07 -3.067164396e-08 0.00111762821)
(-2.907681558e-07 -3.336875752e-08 0.001137266215)
(-1.421470096e-07 -3.332064601e-08 0.001148645347)
(-2.221776927e-07 -3.048073463e-08 0.001159589233)
(-2.730015164e-07 -2.662247175e-08 0.001170303488)
(-2.881766212e-07 -2.278613297e-08 0.00117899415)
(-2.789867528e-07 -1.940343509e-08 0.001185841704)
(-2.558492581e-07 -1.663120458e-08 0.001191138702)
(-2.256962661e-07 -1.449701597e-08 0.001195088455)
(-1.931796128e-07 -1.288328164e-08 0.001197902126)
(-1.608090028e-07 -1.163684296e-08 0.001199735838)
(-1.299648587e-07 -1.063595478e-08 0.001200689472)
(-1.014766737e-07 -9.790404828e-09 0.001200826406)
(-7.564780098e-08 -9.02728111e-09 0.001200263154)
(-5.257452739e-08 -8.303700583e-09 0.001199056915)
(-3.227207751e-08 -7.594791534e-09 0.001197250408)
(-1.463147307e-08 -6.891661872e-09 0.001194886513)
(5.502268825e-10 -6.198070632e-09 0.001192015995)
(1.3442473e-08 -5.521163742e-09 0.001188669378)
(2.416641448e-08 -4.868693363e-09 0.001184843905)
(3.299236593e-08 -4.247045768e-09 0.001180585199)
(4.008402914e-08 -3.662058569e-09 0.001175903376)
(4.552971506e-08 -3.120007413e-09 0.001170774837)
(4.95665737e-08 -2.623321541e-09 0.00116522905)
(5.233463755e-08 -2.174018261e-09 0.001159265599)
(5.39125169e-08 -1.77570245e-09 0.001152840661)
(5.449013686e-08 -1.426112376e-09 0.001145978778)
(5.41550014e-08 -1.125096139e-09 0.001138630549)
(5.302937046e-08 -8.70816863e-10 0.001130777588)
(5.123898414e-08 -6.599681934e-10 0.001122399458)
(4.884809289e-08 -4.909452528e-10 0.001113411187)
(4.598936899e-08 -3.584048744e-10 0.001103817945)
(4.271251083e-08 -2.616759763e-10 0.001093477104)
(3.913577619e-08 -1.95932075e-10 0.001082387029)
(3.531525396e-08 -1.608709662e-10 0.00107036759)
(3.134525915e-08 -1.525469887e-10 0.001057369774)
(2.728918861e-08 -1.691729217e-10 0.001043191659)
(2.321913745e-08 -2.078821154e-10 0.00102764514)
(1.919869507e-08 -2.651117534e-10 0.001010529552)
(1.52883962e-08 -3.375215233e-10 0.0009915115105)
(1.154528091e-08 -4.207299611e-10 0.00097015558)
(8.0203818e-09 -5.085643071e-10 0.0009459972224)
(4.759996662e-09 -5.930537767e-10 0.000918322034)
(1.808893057e-09 -6.626858303e-10 0.000886146033)
(-7.840202879e-10 -7.009474796e-10 0.0008480283156)
(-2.954927387e-09 -6.850547522e-10 0.0008017262841)
(-4.58449767e-09 -5.849784264e-10 0.000743233938)
(-5.447086176e-09 -3.703424888e-10 0.0006653321638)
(-5.177584145e-09 -2.144842567e-11 0.0005558349965)
(-3.462225475e-09 4.233424229e-10 0.0003987574749)
(-9.23944279e-10 5.114738987e-10 0.0001746797514)
(9.570840821e-07 -3.525586076e-09 0.0001441290404)
(9.510281166e-07 -8.880538485e-09 0.0003276645006)
(9.803166746e-07 -1.436878393e-08 0.0005139712273)
(9.526238567e-07 -1.931558564e-08 0.0006827516929)
(8.627192915e-07 -2.35356307e-08 0.0008309403002)
(7.487277475e-07 -2.693258845e-08 0.0009584280964)
(6.112648802e-07 -2.947379107e-08 0.001066392766)
(4.825182243e-07 -3.123709588e-08 0.001156657755)
(3.927395916e-07 -3.236705415e-08 0.001231401926)
(2.473447051e-07 -3.300505222e-08 0.001292952671)
(2.750719037e-08 -3.354407176e-08 0.001343412262)
(-1.563165138e-07 -3.447447044e-08 0.001384901274)
(-2.786570981e-07 -3.639514965e-08 0.00141933032)
(-3.26013787e-07 -3.975624803e-08 0.001448657411)
(-3.768904901e-07 -4.325221701e-08 0.001474111978)
(-1.842493927e-07 -4.318985539e-08 0.001488861483)
(-2.879842851e-07 -3.950879345e-08 0.001503046828)
(-3.538615672e-07 -3.450775549e-08 0.001516934528)
(-3.735313714e-07 -2.953513529e-08 0.001528199269)
(-3.616195648e-07 -2.515051945e-08 0.001537074993)
(-3.316289984e-07 -2.155718472e-08 0.001543940904)
(-2.925450213e-07 -1.879087287e-08 0.00154906053)
(-2.503972925e-07 -1.669916817e-08 0.001552707579)
(-2.084388632e-07 -1.508354804e-08 0.001555084416)
(-1.684590224e-07 -1.378620777e-08 0.001556320506)
(-1.3153295e-07 -1.269021521e-08 0.001556497999)
(-9.805384879e-08 -1.170106263e-08 0.001555767918)
(-6.814652498e-08 -1.07631655e-08 0.001554204404)
(-4.183071242e-08 -9.844285373e-09 0.001551862829)
(-1.89651547e-08 -8.932896428e-09 0.001548798775)
(7.13198042e-10 -8.033871079e-09 0.001545078041)
(1.742398586e-08 -7.156471804e-09 0.001540740192)
(3.132424103e-08 -6.310746864e-09 0.001535781656)
(4.276434237e-08 -5.504974079e-09 0.001530261568)
(5.195647833e-08 -4.746720097e-09 0.001524193041)
(5.901511661e-08 -4.044119342e-09 0.001517545485)
(6.424764843e-08 -3.40032057e-09 0.001510357096)
(6.78355824e-08 -2.817938593e-09 0.001502627338)
(6.988081229e-08 -2.301646013e-09 0.001494299403)
(7.062951694e-08 -1.848511199e-09 0.001485405106)
(7.019511803e-08 -1.458337258e-09 0.001475880412)
(6.873608756e-08 -1.128743254e-09 0.00146570149)
(6.641540849e-08 -8.554435239e-10 0.001454841851)
(6.33163615e-08 -6.363578446e-10 0.001443191352)
(5.961091498e-08 -4.645604618e-10 0.001430756697)
(5.536348742e-08 -3.391815265e-10 0.001417353012)
(5.072736327e-08 -2.539650037e-10 0.001402978179)
(4.577524432e-08 -2.085191795e-10 0.001387398715)
(4.062938065e-08 -1.977297313e-10 0.001370551088)
(3.537194656e-08 -2.192800831e-10 0.001352173571)
(3.009639095e-08 -2.694545148e-10 0.001332022343)
(2.488513769e-08 -3.43634943e-10 0.001309837307)
(1.981665124e-08 -4.374916915e-10 0.00128518633)
(1.496486631e-08 -5.453455546e-10 0.001257505008)
(1.03959308e-08 -6.591954693e-10 0.00122619121)
(6.169855394e-09 -7.687097918e-10 0.001190318935)
(2.344667313e-09 -8.58966095e-10 0.001148612755)
(-1.016238486e-09 -9.085604246e-10 0.001099204989)
(-3.830144425e-09 -8.879604458e-10 0.001039188804)
(-5.942375528e-09 -7.582426115e-10 0.0009633716675)
(-7.060453276e-09 -4.800338666e-10 0.0008623962434)
(-6.711127704e-09 -2.780121378e-11 0.0007204672177)
(-4.487698635e-09 5.48731799e-10 0.0005168650594)
(-1.197606427e-09 6.629668499e-10 0.0002264179752)
(1.179381166e-06 -4.344456139e-09 0.0001776051643)
(1.171918612e-06 -1.094317629e-08 0.0004037694785)
(1.208009875e-06 -1.770614876e-08 0.0006333487273)
(1.173884986e-06 -2.380191912e-08 0.0008413309787)
(1.063098742e-06 -2.900213272e-08 0.001023938605)
(9.226309582e-07 -3.318808469e-08 0.001181037348)
(7.532402852e-07 -3.63195196e-08 0.001314078426)
(5.945902942e-07 -3.84923783e-08 0.001425308807)
(4.83959232e-07 -3.988478627e-08 0.00151741343)
(3.0479421e-07 -4.067096892e-08 0.001593260255)
(3.389614649e-08 -4.133518382e-08 0.00165543984)
(-1.926233606e-07 -4.248168149e-08 0.001706565296)
(-3.433793742e-07 -4.484846716e-08 0.001748991002)
(-4.01735362e-07 -4.899023088e-08 0.001785129748)
(-4.644289398e-07 -5.32981909e-08 0.001816496518)
(-2.270440681e-07 -5.322134487e-08 0.001834671816)
(-3.548729398e-07 -4.868530128e-08 0.00185215192)
(-4.360512054e-07 -4.252269749e-08 0.001869265246)
(-4.602896156e-07 -3.639511193e-08 0.001883146391)
(-4.456111139e-07 -3.099210352e-08 0.001894083635)
(-4.086547902e-07 -2.656416309e-08 0.001902544256)
(-3.604929752e-07 -2.315533397e-08 0.001908852992)
(-3.085558064e-07 -2.057779958e-08 0.001913347123)
(-2.568519048e-07 -1.858692753e-08 0.001916276016)
(-2.075861484e-07 -1.698826059e-08 0.001917799206)
(-1.620834436e-07 -1.563770737e-08 0.001918017925)
(-1.208283208e-07 -1.441880932e-08 0.001917118271)
(-8.397457399e-08 -1.326307156e-08 0.001915191608)
(-5.154652063e-08 -1.213076779e-08 0.001912306167)
(-2.337009535e-08 -1.100769514e-08 0.00190853044)
(8.788489475e-10 -9.899857721e-09 0.001903945511)
(2.147096702e-08 -8.818669349e-09 0.001898600131)
(3.859976422e-08 -7.776512151e-09 0.001892489901)
(5.269700009e-08 -6.783586592e-09 0.00188568769)
(6.402414702e-08 -5.849216789e-09 0.001878209658)
(7.272225955e-08 -4.983426507e-09 0.001870018107)
(7.91701251e-08 -4.190095847e-09 0.001861160107)
(8.359141035e-08 -3.472446951e-09 0.001851634997)
(8.611167546e-08 -2.836237703e-09 0.001841372775)
(8.703427795e-08 -2.277855555e-09 0.001830412645)
(8.64989834e-08 -1.797057884e-09 0.001818675697)
(8.47010713e-08 -1.390910746e-09 0.001806132569)
(8.184137983e-08 -1.054133069e-09 0.001792750616)
(7.802253286e-08 -7.841614657e-10 0.001778394115)
(7.3456441e-08 -5.724615729e-10 0.001763071325)
(6.82224849e-08 -4.179615059e-10 0.001746554434)
(6.250955161e-08 -3.129521719e-10 0.001728840832)
(5.640722902e-08 -2.569508757e-10 0.001709642804)
(5.00661616e-08 -2.436554169e-10 0.001688882064)
(4.358760986e-08 -2.7021116e-10 0.001666236094)
(3.70867276e-08 -3.320393534e-10 0.001641404442)
(3.066508288e-08 -4.234492949e-10 0.0016140666)
(2.44193647e-08 -5.391056761e-10 0.001583690065)
(1.84406802e-08 -6.72010211e-10 0.001549579342)
(1.281054112e-08 -8.123034701e-10 0.001510992446)
(7.602896531e-09 -9.47254131e-10 0.001466788299)
(2.889251343e-09 -1.05847381e-09 0.001415395236)
(-1.252275065e-09 -1.119587164e-09 0.001354511777)
(-4.719752717e-09 -1.094202532e-09 0.001280555937)
(-7.322581066e-09 -9.343557915e-10 0.001187129137)
(-8.700349083e-09 -5.915289072e-10 0.001062700661)
(-8.269887425e-09 -3.425846123e-11 0.000887806498)
(-5.530033721e-09 6.761829612e-10 0.000636914695)
(-1.47576842e-09 8.169508103e-10 0.0002790069342)
(1.405333496e-06 -5.176790939e-09 0.0002116317385)
(1.396441225e-06 -1.303973018e-08 0.0004811258558)
(1.439447051e-06 -2.109839012e-08 0.0007546891596)
(1.398784328e-06 -2.836202169e-08 0.001002517795)
(1.266773046e-06 -3.455852081e-08 0.001220110394)
(1.099393671e-06 -3.954644047e-08 0.001407306978)
(8.975502016e-07 -4.327781291e-08 0.001565836798)
(7.085051728e-07 -4.586695983e-08 0.001698377308)
(5.766788033e-07 -4.752613298e-08 0.00180812784)
(3.63188361e-07 -4.846293682e-08 0.001898505817)
(4.039015665e-08 -4.925440566e-08 0.001972598109)
(-2.295272034e-07 -5.062055567e-08 0.002033518461)
(-4.091658832e-07 -5.344078315e-08 0.002084072317)
(-4.787020321e-07 -5.837604874e-08 0.002127134722)
(-5.534067903e-07 -6.350935143e-08 0.002164510911)
(-2.705424194e-07 -6.341778282e-08 0.002186168333)
(-4.228614493e-07 -5.801269905e-08 0.002206997372)
(-5.195922934e-07 -5.066942973e-08 0.002227389362)
(-5.484744316e-07 -4.336788763e-08 0.002243929933)
(-5.309837418e-07 -3.692974116e-08 0.002256962594)
(-4.869471224e-07 -3.165347155e-08 0.002267044148)
(-4.29558202e-07 -2.75915602e-08 0.002274561546)
(-3.676706247e-07 -2.452020759e-08 0.002279916688)
(-3.060610053e-07 -2.214791333e-08 0.002283406714)
(-2.473566443e-07 -2.024296499e-08 0.002285221725)
(-1.931362812e-07 -1.863366535e-08 0.002285482347)
(-1.43977275e-07 -1.718124411e-08 0.002284410333)
(-1.000628847e-07 -1.580408375e-08 0.002282114549)
(-6.142208654e-08 -1.4454847e-08 0.0022786763)
(-2.784746675e-08 -1.311660992e-08 0.002274177198)
(1.047223662e-09 -1.179652691e-08 0.002268713862)
(2.558449296e-08 -1.050819852e-08 0.002262344386)
(4.599491933e-08 -9.266379117e-09 0.002255063525)
(6.279298118e-08 -8.083223419e-09 0.002246958108)
(7.629024522e-08 -6.96984191e-09 0.002238047393)
(8.665478998e-08 -5.938178764e-09 0.002228286461)
(9.433797307e-08 -4.992857454e-09 0.002217731397)
(9.960631247e-08 -4.137717435e-09 0.002206381413)
(1.026094238e-07 -3.37961972e-09 0.002194153098)
(1.037087836e-07 -2.71425965e-09 0.002181093166)
(1.030709344e-07 -2.141348117e-09 0.00216710759)
(1.009285684e-07 -1.657389076e-09 0.00215216138)
(9.752100148e-08 -1.256089679e-09 0.002136215639)
(9.29705188e-08 -9.343954319e-10 0.00211910864)
(8.752962995e-08 -6.821369094e-10 0.002100850226)
(8.129292375e-08 -4.980368698e-10 0.002081168938)
(7.448547529e-08 -3.729092701e-10 0.002060061667)
(6.721403618e-08 -3.061789376e-10 0.002037185574)
(5.965811218e-08 -2.903362616e-10 0.002012447378)
(5.193836387e-08 -3.219797001e-10 0.001985462768)
(4.419200684e-08 -3.956532788e-10 0.001955873733)
(3.654006811e-08 -5.045760396e-10 0.001923298356)
(2.909776088e-08 -6.423905064e-10 0.001887102117)
(2.197364712e-08 -8.007576231e-10 0.001846456274)
(1.526485504e-08 -9.679290363e-10 0.001800476689)
(9.059501262e-09 -1.128734287e-09 0.001747803668)
(3.442790005e-09 -1.261262043e-09 0.00168656444)
(-1.492192809e-09 -1.33408383e-09 0.001614016593)
(-5.6239889e-09 -1.303835871e-09 0.001525891886)
(-8.725481418e-09 -1.113364813e-09 0.001414565866)
(-1.036720981e-08 -7.048572684e-10 0.001266298698)
(-9.854277939e-09 -4.082188564e-11 0.001057897349)
(-6.589507994e-09 8.057298117e-10 0.0007589383151)
(-1.75850425e-09 9.734667394e-10 0.0003324606171)
(1.635001176e-06 -6.022811878e-09 0.000246217814)
(1.624655678e-06 -1.517075786e-08 0.0005597542094)
(1.674689764e-06 -2.454641034e-08 0.0008780248012)
(1.627381705e-06 -3.299710634e-08 0.001166355017)
(1.47379638e-06 -4.020627298e-08 0.00141950785)
(1.279062906e-06 -4.600934715e-08 0.001637297175)
(1.044233016e-06 -5.035052192e-08 0.00182173485)
(8.242931617e-07 -5.336280211e-08 0.001975935892)
(6.709229689e-07 -5.529312688e-08 0.002103622487)
(4.225426911e-07 -5.63830286e-08 0.002208770553)
(4.699094828e-08 -5.730384382e-08 0.002294971433)
(-2.670378587e-07 -5.889325791e-08 0.002365847739)
(-4.760341243e-07 -6.217438319e-08 0.002424663398)
(-5.569342704e-07 -6.791619826e-08 0.002474763308)
(-6.438477097e-07 -7.388841479e-08 0.002518247729)
(-3.14756017e-07 -7.378188151e-08 0.002543444531)
(-4.919678986e-07 -6.749346787e-08 0.002567677571)
(-6.045070534e-07 -5.895011926e-08 0.002591402137)
(-6.381092767e-07 -5.045531717e-08 0.002610645864)
(-6.177601578e-07 -4.296501179e-08 0.002625808398)
(-5.665268208e-07 -3.682646386e-08 0.002637537537)
(-4.997590731e-07 -3.21007316e-08 0.002646283471)
(-4.277574721e-07 -2.852744089e-08 0.002652513781)
(-3.560792545e-07 -2.576745266e-08 0.002656574168)
(-2.877810893e-07 -2.355118671e-08 0.002658685798)
(-2.246997227e-07 -2.167888608e-08 0.002658989013)
(-1.675068691e-07 -1.99891018e-08 0.002657741804)
(-1.164157366e-07 -1.838687798e-08 0.002655070829)
(-7.146003706e-08 -1.681714121e-08 0.002651070682)
(-3.239845987e-08 -1.526020172e-08 0.002645836311)
(1.218366974e-09 -1.372438316e-08 0.002639480126)
(2.97656579e-08 -1.222550874e-08 0.002632069713)
(5.35116735e-08 -1.078074407e-08 0.002623598971)
(7.305497119e-08 -9.404230264e-09 0.002614168921)
(8.875803572e-08 -8.108893548e-09 0.002603801966)
(1.00816414e-07 -6.908630079e-09 0.002592445846)
(1.09755227e-07 -5.808818925e-09 0.002580165812)
(1.158845487e-07 -4.813927008e-09 0.002566960949)
(1.193784458e-07 -3.931936606e-09 0.002552734213)
(1.206574693e-07 -3.157839567e-09 0.002537539951)
(1.199153791e-07 -2.491299538e-09 0.002521268772)
(1.174228953e-07 -1.928249128e-09 0.002503879966)
(1.134584442e-07 -1.461367077e-09 0.002485328281)
(1.081642955e-07 -1.087099706e-09 0.002465425558)
(1.018342253e-07 -7.93615645e-10 0.002444183249)
(9.457828075e-08 -5.794289185e-10 0.002421285532)
(8.665831992e-08 -4.338522471e-10 0.002396728789)
(7.819854042e-08 -3.562164599e-10 0.002370114154)
(6.940778388e-08 -3.377846828e-10 0.002341333099)
(6.042642991e-08 -3.745994738e-10 0.002309938509)
(5.141411868e-08 -4.603132125e-10 0.002275513863)
(4.251165613e-08 -5.870367571e-10 0.002237614831)
(3.385308426e-08 -7.473736564e-10 0.002195503195)
(2.556470687e-08 -9.316220378e-10 0.002148214775)
(1.775952541e-08 -1.126113565e-09 0.002094720941)
(1.054005705e-08 -1.313198534e-09 0.002033439793)
(4.005430542e-09 -1.467384738e-09 0.001962192498)
(-1.736055537e-09 -1.552107479e-09 0.001877788464)
(-6.543093501e-09 -1.516916225e-09 0.001775261911)
(-1.015144976e-08 -1.295317292e-09 0.001645742352)
(-1.206147884e-08 -8.200490958e-10 0.001473244512)
(-1.14647207e-08 -4.74932329e-11 0.001230785017)
(-7.666403277e-09 9.374068101e-10 0.0008829683781)
(-2.045889125e-09 1.132556271e-09 0.0003867932427)
(1.868445297e-06 -6.882743998e-09 0.0002813725907)
(1.856622678e-06 -1.733682617e-08 0.0006396754544)
(1.913800589e-06 -2.805112659e-08 0.001003388459)
(1.859737925e-06 -3.770840601e-08 0.001332886225)
(1.684223814e-06 -4.594689152e-08 0.001622184012)
(1.461686454e-06 -5.257852384e-08 0.001871069118)
(1.193327746e-06 -5.753952797e-08 0.002081840651)
(9.419850604e-07 -6.098189905e-08 0.002258058391)
(7.667167978e-07 -6.3187834e-08 0.002403975973)
(4.828729885e-07 -6.443335098e-08 0.002524136994)
(5.370027717e-08 -6.548563944e-08 0.002622645565)
(-3.051653042e-07 -6.730198877e-08 0.002703641531)
(-5.440018845e-07 -7.105159041e-08 0.002770854841)
(-6.364528869e-07 -7.761321711e-08 0.002828107975)
(-7.357757555e-07 -8.44381418e-08 0.002877801066)
(-3.596966219e-07 -8.431639778e-08 0.002906595447)
(-5.622106699e-07 -7.713012962e-08 0.00293428846)
(-6.908180726e-07 -6.736696874e-08 0.0029614004)
(-7.292179936e-07 -5.76592858e-08 0.002983391731)
(-7.059634443e-07 -4.909952079e-08 0.003000719158)
(-6.474150537e-07 -4.208451604e-08 0.003014122974)
(-5.711142619e-07 -3.668404762e-08 0.003024117646)
(-4.888323317e-07 -3.260056541e-08 0.003031237514)
(-4.069199572e-07 -2.944650833e-08 0.00303587764)
(-3.288702363e-07 -2.691380575e-08 0.003038290767)
(-2.56782164e-07 -2.477417958e-08 0.003038637274)
(-1.914233619e-07 -2.28431293e-08 0.00303721199)
(-1.330374796e-07 -2.101214128e-08 0.003034159655)
(-8.16630423e-08 -1.921827878e-08 0.003029588371)
(-3.702428529e-08 -1.743904076e-08 0.003023606641)
(1.392324407e-09 -1.568393928e-08 0.003016342924)
(3.401557402e-08 -1.397105681e-08 0.003007874459)
(6.115202617e-08 -1.232000983e-08 0.002998194272)
(8.348569981e-08 -1.074695852e-08 0.002987417807)
(1.01430835e-07 -9.26667469e-09 0.002975570666)
(1.152108985e-07 -7.895038592e-09 0.002962593128)
(1.254259879e-07 -6.638197307e-09 0.002948559762)
(1.324304492e-07 -5.501255541e-09 0.002933469519)
(1.36423202e-07 -4.493335276e-09 0.002917211501)
(1.378848434e-07 -3.6087133e-09 0.002899847816)
(1.370367981e-07 -2.847005234e-09 0.00288125345)
(1.341884396e-07 -2.20356295e-09 0.002861381886)
(1.296579475e-07 -1.670019864e-09 0.002840181406)
(1.236079045e-07 -1.242314906e-09 0.002817436988)
(1.163740321e-07 -9.069274332e-10 0.00279316172)
(1.080820898e-07 -6.621593023e-10 0.002766994686)
(9.903132346e-08 -4.957973136e-10 0.002738931751)
(8.936366361e-08 -4.070767527e-10 0.002708517101)
(7.93177701e-08 -3.860133016e-10 0.00267562671)
(6.905406581e-08 -4.280844782e-10 0.002639749627)
(5.87549842e-08 -5.260363538e-10 0.002600409859)
(4.858143538e-08 -6.708533818e-10 0.002557099634)
(3.868659975e-08 -8.540830515e-10 0.002508975333)
(2.921481467e-08 -1.064638265e-09 0.002454935111)
(2.029521583e-08 -1.286899132e-09 0.002393803472)
(1.204495771e-08 -1.500695939e-09 0.002323772651)
(4.577322616e-09 -1.676896722e-09 0.002242352726)
(-1.983928116e-09 -1.773716107e-09 0.002145897555)
(-7.477311002e-09 -1.733500274e-09 0.002028732344)
(-1.160086539e-08 -1.480261628e-09 0.00188072009)
(-1.378360686e-08 -9.371350303e-10 0.00168359315)
(-1.310164408e-08 -5.427427758e-11 0.001406515488)
(-8.761006022e-09 1.071248982e-09 0.001009037876)
(-2.33799949e-09 1.294261722e-09 0.0004420192633)
(2.105727956e-06 -7.75681604e-09 0.0003171054197)