/*--------------------------------*- C++ -*----------------------------------*\
| =========                 |                                                 |
| \\      /  F ield         | foam-extend: Open Source CFD                    |
|  \\    /   O peration     | Version:     3.2                                |
|   \\  /    A nd           | Web:         http://www.foam-extend.org         |
|    \\/     M anipulation  | For copyright notice see file Copyright         |
\*---------------------------------------------------------------------------*/
FoamFile
{
    version     2.0;
    format      ascii;
    class       volVectorField;
    location    "0";
    object      U;
}
// * * * * * * * * * * * * * * * * * * * * * * * * * * * * * * * * * * * * * //

dimensions      [0 1 -1 0 0 0 0];

internalField   nonuniform List<vector> 
57344
(
(0.3720560203 -0.006729089145 0)
(0.8551558072 -0.006720934411 0)
(1.368133561 -0.006705708604 0)
(1.867729929 -0.00668486655 0)
(2.349899958 -0.006659767291 0)
(2.814102224 -0.006631609474 0)
(3.260578419 -0.006601383151 0)
(3.689811686 -0.006569830474 0)
(4.102368328 -0.006537660532 0)
(4.498840236 -0.006505515509 0)
(4.879820814 -0.006473961004 0)
(5.245893997 -0.006443722159 0)
(5.597628984 -0.006415736471 0)
(5.935577716 -0.006391646318 0)
(6.260273756 -0.006372676216 0)
(6.572231917 -0.006346168847 0)
(6.871948307 -0.006291215072 0)
(7.159900617 -0.006232086243 0)
(7.436548541 -0.006177773339 0)
(7.70233428 -0.00612722696 0)
(7.957683084 -0.006078872496 0)
(8.203003812 -0.006031615832 0)
(8.438689507 -0.005984794998 0)
(8.665117958 -0.005938226127 0)
(8.882652261 -0.005891606055 0)
(9.091641358 -0.005844847809 0)
(9.29242058 -0.005797887804 0)
(9.485312156 -0.005750713951 0)
(9.670625716 -0.005703185477 0)
(9.848658772 -0.005655318573 0)
(10.01969719 -0.005607118679 0)
(10.18401563 -0.005558554007 0)
(10.34187801 -0.005509447172 0)
(10.49353786 -0.005459893478 0)
(10.63923881 -0.005409878135 0)
(10.77921492 -0.005359190886 0)
(10.91369105 -0.005307945704 0)
(11.04288326 -0.005256045636 0)
(11.16699912 -0.005203336932 0)
(11.28623804 -0.005149908736 0)
(11.40079162 -0.005095560516 0)
(11.51084394 -0.005040238199 0)
(11.61657183 -0.004983914424 0)
(11.7181452 -0.004926301211 0)
(11.81572727 -0.004867521843 0)
(11.90947487 -0.004807150545 0)
(11.99953864 -0.004745299303 0)
(12.08606333 -0.004681512098 0)
(12.169188 -0.004615791588 0)
(12.24904624 -0.004547715879 0)
(12.32576639 -0.004476982144 0)
(12.39947176 -0.00440325412 0)
(12.4702808 -0.004325964039 0)
(12.53830733 -0.004244320334 0)
(12.60366068 -0.004157533883 0)
(12.66644588 -0.004064232464 0)
(12.72676386 -0.003962368176 0)
(12.78471155 -0.003848512639 0)
(12.8403821 -0.003716412181 0)
(12.89386499 -0.003552612428 0)
(12.94524618 -0.003326269439 0)
(12.99460826 -0.002962402542 0)
(13.04203057 -0.002268108323 0)
(13.08758933 -0.0009050419649 0)
(0.3720560203 -0.02029791431 0)
(0.8551558072 -0.02027331602 0)
(1.368133561 -0.02022738824 0)
(1.867729929 -0.02016451937 0)
(2.349899958 -0.02008880888 0)
(2.814102224 -0.02000387243 0)
(3.260578419 -0.01991269645 0)
(3.689811686 -0.0198175196 0)
(4.102368328 -0.0197204808 0)
(4.498840236 -0.01962351716 0)
(4.879820814 -0.0195283348 0)
(5.245893997 -0.01943712104 0)
(5.597628984 -0.01935270381 0)
(5.935577716 -0.01928003723 0)
(6.260273756 -0.019222815 0)
(6.572231917 -0.01914285703 0)
(6.871948307 -0.0189770921 0)
(7.159900617 -0.01879873335 0)
(7.436548541 -0.01863490157 0)
(7.70233428 -0.01848243129 0)
(7.957683084 -0.0183365728 0)
(8.203003812 -0.01819402577 0)
(8.438689507 -0.01805279339 0)
(8.665117958 -0.01791232104 0)
(8.882652261 -0.01777169425 0)
(9.091641358 -0.01763065066 0)
(9.29242058 -0.01748899848 0)
(9.485312156 -0.01734670124 0)
(9.670625716 -0.0172033343 0)
(9.848658772 -0.01705894651 0)
(10.01969719 -0.01691355427 0)
(10.18401563 -0.01676706171 0)
(10.34187801 -0.01661893373 0)
(10.49353786 -0.01646945784 0)
(10.63923881 -0.0163185894 0)
(10.77921492 -0.0161656942 0)
(10.91369105 -0.01601111603 0)
(11.04288326 -0.01585456243 0)
(11.16699912 -0.01569556962 0)
(11.28623804 -0.01553440651 0)
(11.40079162 -0.0153704682 0)
(11.51084394 -0.01520359158 0)
(11.61657183 -0.01503369412 0)
(11.7181452 -0.01485990714 0)
(11.81572727 -0.01468260252 0)
(11.90947487 -0.01450049594 0)
(11.99953864 -0.01431392519 0)
(12.08606333 -0.01412151472 0)
(12.169188 -0.01392327254 0)
(12.24904624 -0.01371792604 0)
(12.32576639 -0.01350456176 0)
(12.39947176 -0.01328216537 0)
(12.4702808 -0.01304902424 0)
(12.53830733 -0.01280275065 0)
(12.60366068 -0.01254096427 0)
(12.66644588 -0.01225952584 0)
(12.72676386 -0.01195225802 0)
(12.78471155 -0.01160881928 0)
(12.8403821 -0.01121034576 0)
(12.89386499 -0.01071625314 0)
(12.94524618 -0.01003350239 0)
(12.99460826 -0.008935918615 0)
(13.04203057 -0.006841619629 0)
(13.08758933 -0.002730007562 0)
(0.3720560203 -0.03408985261 0)
(0.8551558072 -0.03404854038 0)
(1.368133561 -0.03397140579 0)
(1.867729929 -0.03386581905 0)
(2.349899958 -0.03373866514 0)
(2.814102224 -0.03359601644 0)
(3.260578419 -0.03344288859 0)
(3.689811686 -0.03328304139 0)
(4.102368328 -0.03312006709 0)
(4.498840236 -0.03295721903 0)
(4.879820814 -0.03279736256 0)
(5.245893997 -0.03264417128 0)
(5.597628984 -0.0325023946 0)
(5.935577716 -0.03238035285 0)
(6.260273756 -0.03228424951 0)
(6.572231917 -0.03214996204 0)
(6.871948307 -0.03187156388 0)
(7.159900617 -0.03157201471 0)
(7.436548541 -0.03129686322 0)
(7.70233428 -0.03104079311 0)
(7.957683084 -0.03079582733 0)
(8.203003812 -0.03055642306 0)
(8.438689507 -0.03031922671 0)
(8.665117958 -0.03008330683 0)
(8.882652261 -0.02984712755 0)
(9.091641358 -0.02961024828 0)
(9.29242058 -0.0293723469 0)
(9.485312156 -0.02913336215 0)
(9.670625716 -0.02889258087 0)
(9.848658772 -0.02865008509 0)
(10.01969719 -0.02840590237 0)
(10.18401563 -0.02815987167 0)
(10.34187801 -0.02791109435 0)
(10.49353786 -0.02766005322 0)
(10.63923881 -0.02740667336 0)
(10.77921492 -0.0271498896 0)
(10.91369105 -0.02689027932 0)
(11.04288326 -0.02662735136 0)
(11.16699912 -0.02636032682 0)
(11.28623804 -0.0260896573 0)
(11.40079162 -0.0258143269 0)
(11.51084394 -0.02553406168 0)
(11.61657183 -0.02524872304 0)
(11.7181452 -0.02495685204 0)
(11.81572727 -0.02465907326 0)
(11.90947487 -0.02435322969 0)
(11.99953864 -0.02403988866 0)
(12.08606333 -0.02371673996 0)
(12.169188 -0.02338379705 0)
(12.24904624 -0.02303892261 0)
(12.32576639 -0.02268058249 0)
(12.39947176 -0.02230707317 0)
(12.4702808 -0.02191551833 0)
(12.53830733 -0.02150190783 0)
(12.60366068 -0.02106224397 0)
(12.66644588 -0.020589575 0)
(12.72676386 -0.02007352618 0)
(12.78471155 -0.01949672917 0)
(12.8403821 -0.01882750261 0)
(12.89386499 -0.01799768608 0)
(12.94524618 -0.01685102284 0)
(12.99460826 -0.01500765763 0)
(13.04203057 -0.0114903335 0)
(13.08758933 -0.004584981194 0)
(0.3720560203 -0.04810857269 0)
(0.8551558072 -0.04805027169 0)
(1.368133561 -0.04794141715 0)
(1.867729929 -0.04779241014 0)
(2.349899958 -0.04761296691 0)
(2.814102224 -0.04741165699 0)
(3.260578419 -0.04719555861 0)
(3.689811686 -0.04696997767 0)
(4.102368328 -0.04673998369 0)
(4.498840236 -0.04651016786 0)
(4.879820814 -0.04628457385 0)
(5.245893997 -0.04606838595 0)
(5.597628984 -0.04586830665 0)
(5.935577716 -0.04569607786 0)
(6.260273756 -0.04556045407 0)
(6.572231917 -0.04537094377 0)
(6.871948307 -0.04497806034 0)
(7.159900617 -0.044555328 0)
(7.436548541 -0.04416702637 0)
(7.70233428 -0.04380565293 0)
(7.957683084 -0.04345995023 0)
(8.203003812 -0.04312209609 0)
(8.438689507 -0.04278735784 0)
(8.665117958 -0.04245442096 0)
(8.882652261 -0.04212111803 0)
(9.091641358 -0.04178682725 0)
(9.29242058 -0.04145109403 0)
(9.485312156 -0.04111383192 0)
(9.670625716 -0.04077403452 0)
(9.848658772 -0.04043181756 0)
(10.01969719 -0.04008721993 0)
(10.18401563 -0.03974001439 0)
(10.34187801 -0.03938893274 0)
(10.49353786 -0.03903465634 0)
(10.63923881 -0.03867707945 0)
(10.77921492 -0.03831469887 0)
(10.91369105 -0.03794832944 0)
(11.04288326 -0.037577278 0)
(11.16699912 -0.03720044535 0)
(11.28623804 -0.0368184688 0)
(11.40079162 -0.03642991468 0)
(11.51084394 -0.03603439641 0)
(11.61657183 -0.03563171837 0)
(11.7181452 -0.0352198217 0)
(11.81572727 -0.03479958778 0)
(11.90947487 -0.0343679726 0)
(11.99953864 -0.0339257768 0)
(12.08606333 -0.03346974014 0)
(12.169188 -0.03299988161 0)
(12.24904624 -0.03251318495 0)
(12.32576639 -0.03200748515 0)
(12.39947176 -0.03148037815 0)
(12.4702808 -0.03092780478 0)
(12.53830733 -0.03034410585 0)
(12.60366068 -0.02972363967 0)
(12.66644588 -0.02905659573 0)
(12.72676386 -0.0283283329 0)
(12.78471155 -0.02751434051 0)
(12.8403821 -0.0265699089 0)
(12.89386499 -0.02539884813 0)
(12.94524618 -0.02378064425 0)
(12.99460826 -0.02117923466 0)
(13.04203057 -0.01621548649 0)
(13.08758933 -0.006470456285 0)
(0.3720560203 -0.06235780354 0)
(0.8551558072 -0.06228223442 0)
(1.368133561 -0.06214113837 0)
(1.867729929 -0.06194799712 0)
(2.349899958 -0.06171540477 0)
(2.814102224 -0.06145446907 0)
(3.260578419 -0.06117436472 0)
(3.689811686 -0.06088196919 0)
(4.102368328 -0.06058385352 0)
(4.498840236 -0.06028596876 0)
(4.879820814 -0.05999355629 0)
(5.245893997 -0.05971333591 0)
(5.597628984 -0.0594539953 0)
(5.935577716 -0.05923075424 0)
(6.260273756 -0.05905496018 0)
(6.572231917 -0.05880931901 0)
(6.871948307 -0.05830006782 0)
(7.159900617 -0.0577521268 0)
(7.436548541 -0.05724881449 0)
(7.70233428 -0.0567804062 0)
(7.957683084 -0.05633231016 0)
(8.203003812 -0.05589438734 0)
(8.438689507 -0.05546050329 0)
(8.665117958 -0.05502895417 0)
(8.882652261 -0.05459693058 0)
(9.091641358 -0.05416362653 0)
(9.29242058 -0.05372845282 0)
(9.485312156 -0.05329129739 0)
(9.670625716 -0.05285085572 0)
(9.848658772 -0.05240727786 0)
(10.01969719 -0.0519606142 0)
(10.18401563 -0.05151057019 0)
(10.34187801 -0.05105550201 0)
(10.49353786 -0.05059629282 0)
(10.63923881 -0.05013280559 0)
(10.77921492 -0.04966309187 0)
(10.91369105 -0.04918820784 0)
(11.04288326 -0.04870725503 0)
(11.16699912 -0.04821880869 0)
(11.28623804 -0.04772369488 0)
(11.40079162 -0.0472200553 0)
(11.51084394 -0.04670738886 0)
(11.61657183 -0.04618544201 0)
(11.7181452 -0.04565154606 0)
(11.81572727 -0.04510684348 0)
(11.90947487 -0.04454738863 0)
(11.99953864 -0.04397421929 0)
(12.08606333 -0.04338310957 0)
(12.169188 -0.0427740841 0)
(12.24904624 -0.04214323324 0)
(12.32576639 -0.04148775071 0)
(12.39947176 -0.04080452041 0)
(12.4702808 -0.04008828087 0)
(12.53830733 -0.03933169673 0)
(12.60366068 -0.03852745528 0)
(12.66644588 -0.03766284025 0)
(12.72676386 -0.03671887397 0)
(12.78471155 -0.03566378598 0)
(12.8403821 -0.03443962409 0)
(12.89386499 -0.03292170799 0)
(12.94524618 -0.03082420989 0)
(12.99460826 -0.02745229135 0)
(13.04203057 -0.02101833549 0)
(13.08758933 -0.008386934372 0)
(0.3720551042 -0.07684133548 0)
(0.8551537016 -0.07674821431 0)
(1.368130193 -0.07657434659 0)
(1.86772533 -0.0763363454 0)
(2.349894172 -0.07604973 0)
(2.814095295 -0.07572818808 0)
(3.260570391 -0.07538302531 0)
(3.6898026 -0.07502271654 0)
(4.102358227 -0.07465535905 0)
(4.498829159 -0.07428828611 0)
(4.879808799 -0.07392795646 0)
(5.24588108 -0.07358265071 0)
(5.597615201 -0.07326307438 0)
(5.935563101 -0.07298798224 0)
(6.260258342 -0.07277135738 0)
(6.572215734 -0.07246866238 0)
(6.871931386 -0.07184112998 0)
(7.159882987 -0.07116592148 0)
(7.436530231 -0.07054570736 0)
(7.702315315 -0.06996850425 0)
(7.95766349 -0.0694163312 0)
(8.202983615 -0.06887669425 0)
(8.438668728 -0.06834203416 0)
(8.665096622 -0.0678102513 0)
(8.882630389 -0.06727788377 0)
(9.091618972 -0.06674393839 0)
(9.2923977 -0.06620768907 0)
(9.485288801 -0.06566899775 0)
(9.670601905 -0.06512625693 0)
(9.848634523 -0.06457965148 0)
(10.01967252 -0.06402924351 0)
(10.18399056 -0.06347467005 0)
(10.34185254 -0.06291390548 0)
(10.49351202 -0.0623480381 0)
(10.63921262 -0.06177689903 0)
(10.77918838 -0.06119808728 0)
(10.91366418 -0.06061290433 0)
(11.04285607 -0.06002024305 0)
(11.16697162 -0.05941834774 0)
(11.28621025 -0.05880823635 0)
(11.40076355 -0.05818761895 0)
(11.51081559 -0.05755587806 0)
(11.61654323 -0.05691270126 0)
(11.71811635 -0.0562548 0)
(11.81569818 -0.05558358209 0)
(11.90944554 -0.05489418549 0)
(11.9995091 -0.054187889 0)
(12.08603358 -0.05345948522 0)
(12.16915804 -0.05270900448 0)
(12.24901608 -0.05193162908 0)
(12.32573604 -0.05112390094 0)
(12.39944123 -0.05028198018 0)
(12.4702501 -0.04939938331 0)
(12.53827646 -0.04846707119 0)
(12.60362965 -0.04747603264 0)
(12.6664147 -0.04641059785 0)
(12.72673252 -0.0452473813 0)
(12.78468007 -0.04394723334 0)
(12.84035049 -0.04243874156 0)
(12.89383324 -0.04056826675 0)
(12.94521431 -0.03798359337 0)
(12.99457627 -0.03382849635 0)
(13.04199846 -0.02590015807 0)
(13.08755711 -0.01033492524 0)
(0.3720522311 -0.09156302113 0)
(0.8551470979 -0.09145205929 0)
(1.368119628 -0.09124488104 0)
(1.867710907 -0.09096128227 0)
(2.349876026 -0.09061975552 0)
(2.814073564 -0.09023661083 0)
(3.260545212 -0.08982531988 0)
(3.689774107 -0.08939598117 0)
(4.102326548 -0.08895824332 0)
(4.498794418 -0.08852084452 0)
(4.879771116 -0.08809148094 0)
(5.24584057 -0.08768001961 0)
(5.597571975 -0.08729921709 0)
(5.935517265 -0.08697142128 0)
(6.260209998 -0.08671329424 0)
(6.572164982 -0.08635260727 0)
(6.87187832 -0.08560484877 0)
(7.159827697 -0.0848002801 0)
(7.436472804 -0.08406124196 0)
(7.702255836 -0.08337345509 0)
(7.957602039 -0.0827154937 0)
(8.202920269 -0.08207247014 0)
(8.438603563 -0.08143537692 0)
(8.665029709 -0.08080171218 0)
(8.882561796 -0.08016735075 0)
(9.091548765 -0.07953110917 0)
(9.292325942 -0.07889212226 0)
(9.485215554 -0.0782502255 0)
(9.670527226 -0.0776035034 0)
(9.848558469 -0.07695217627 0)
(10.01959514 -0.07629631812 0)
(10.18391192 -0.07563549643 0)
(10.34177268 -0.0749672975 0)
(10.49343099 -0.07429301813 0)
(10.63913046 -0.07361245709 0)
(10.77910514 -0.0729227534 0)
(10.9135799 -0.07222545789 0)
(11.0427708 -0.0715192513 0)
(11.16688539 -0.07080204159 0)
(11.28612309 -0.07007504169 0)
(11.40067551 -0.069335523 0)
(11.51072671 -0.06858274972 0)
(11.61645352 -0.06781634956 0)
(11.71802586 -0.06703240396 0)
(11.81560694 -0.06623259044 0)
(11.90935358 -0.06541111544 0)
(11.99941643 -0.06456950279 0)
(12.08594024 -0.0637015474 0)
(12.16906407 -0.06280728544 0)
(12.24892149 -0.06188097619 0)
(12.32564086 -0.06091849904 0)
(12.39934548 -0.05991527848 0)
(12.4701538 -0.05886358884 0)
(12.53817964 -0.05775265924 0)
(12.60353232 -0.05657175208 0)
(12.66631688 -0.05530219543 0)
(12.72663424 -0.05391612345 0)
(12.78458135 -0.052366886 0)
(12.84025133 -0.05056938907 0)
(12.89373368 -0.04834055841 0)
(12.94511434 -0.04526069909 0)
(12.99447592 -0.04030954573 0)
(13.04189774 -0.0308622528 0)
(13.08745604 -0.01231494706 0)
(0.3720493108 -0.1065267765 0)
(0.8551403856 -0.1063976806 0)
(1.368108889 -0.1061566441 0)
(1.867696247 -0.105826698 0)
(2.349857581 -0.105429357 0)
(2.814051476 -0.1049835966 0)
(3.260519619 -0.1045050901 0)
(3.689745145 -0.1040055864 0)
(4.102294347 -0.1034963109 0)
(4.498759106 -0.1029874299 0)
(4.879732813 -0.1024878972 0)
(5.245799394 -0.1020091925 0)
(5.597528038 -0.1015661571 0)
(5.935470676 -0.101184791 0)
(6.26016086 -0.1008844793 0)
(6.572113395 -0.1004648468 0)
(6.87182438 -0.09959488534 0)
(7.159771498 -0.09865882944 0)
(7.436414433 -0.09779901343 0)
(7.702195379 -0.09699882448 0)
(7.957539578 -0.09623333525 0)
(8.202855882 -0.09548522508 0)
(8.438537326 -0.09474401443 0)
(8.664961694 -0.09400679255 0)
(8.882492074 -0.09326876013 0)
(9.091477403 -0.09252854029 0)
(9.292253004 -0.09178512647 0)
(9.485141102 -0.09103832725 0)
(9.67045132 -0.09028591411 0)
(9.848481165 -0.08952814335 0)
(10.0195165 -0.08876510109 0)
(10.18383198 -0.08799628412 0)
(10.3416915 -0.08721888428 0)
(10.49334863 -0.0864344103 0)
(10.63904695 -0.08564262806 0)
(10.77902053 -0.08484020903 0)
(10.91349424 -0.08402895748 0)
(11.04268412 -0.08320733855 0)
(11.16679773 -0.0823729183 0)
(11.2860345 -0.0815271079 0)
(11.40058602 -0.08066673281 0)
(11.51063635 -0.079790937 0)
(11.61636234 -0.07889928732 0)
(11.71793388 -0.07798722482 0)
(11.81551419 -0.07705670117 0)
(11.9092601 -0.07610097601 0)
(11.99932225 -0.07512182218 0)
(12.08584538 -0.07411202053 0)
(12.16896855 -0.07307161314 0)
(12.24882534 -0.0719939211 0)
(12.32554411 -0.07087415041 0)
(12.39924815 -0.06970697777 0)
(12.47005592 -0.06848341497 0)
(12.53808122 -0.06719093086 0)
(12.60343339 -0.06581703306 0)
(12.66621746 -0.06433999816 0)
(12.72653435 -0.06272740633 0)
(12.784481 -0.06092498359 0)
(12.84015054 -0.05883372938 0)
(12.89363247 -0.0562406504 0)
(12.94501273 -0.05265746276 0)
(12.99437392 -0.04689716345 0)
(13.04179537 -0.03590593959 0)
(13.08735331 -0.01432752651 0)
(0.3720463424 -0.1217365819 0)
(0.855133563 -0.1215890538 0)
(1.368097974 -0.1213136023 0)
(1.867681345 -0.1209365468 0)
(2.349838833 -0.1204824737 0)
(2.814029024 -0.119973068 0)
(3.260493606 -0.1194262408 0)
(3.689715707 -0.1188554184 0)
(4.102261618 -0.1182734289 0)
(4.498723213 -0.1176918903 0)
(4.879693881 -0.1171210348 0)
(5.245757541 -0.116573981 0)
(5.597483379 -0.1160676893 0)
(5.93542332 -0.1156318721 0)
(6.260110914 -0.1152886822 0)
(6.572060961 -0.1148091349 0)
(6.871769554 -0.113814961 0)
(7.159714374 -0.1127452558 0)
(7.436355102 -0.111762676 0)
(7.702133928 -0.1108482367 0)
(7.95747609 -0.1099734516 0)
(8.202790437 -0.1091185269 0)
(8.43847 -0.1082714868 0)
(8.664892562 -0.107429005 0)
(8.882421206 -0.1065855969 0)
(9.091404867 -0.1057396891 0)
(9.292178867 -0.1048901312 0)
(9.485065425 -0.1040367046 0)
(9.670374165 -0.1031768626 0)
(9.84840259 -0.1023108979 0)
(10.01943656 -0.1014389091 0)
(10.18375073 -0.1005603211 0)
(10.34160899 -0.09967192474 0)
(10.49326491 -0.09877544422 0)
(10.63896207 -0.09787061196 0)
(10.77893453 -0.0969536242 0)
(10.91340717 -0.09602654282 0)
(11.04259602 -0.09508761382 0)
(11.16670864 -0.09413405573 0)
(11.28594446 -0.09316748122 0)
(11.40049506 -0.09218426249 0)
(11.51054452 -0.09118342126 0)
(11.61626966 -0.09016446258 0)
(11.71784039 -0.08912217655 0)
(11.81541992 -0.0880587935 0)
(11.90916508 -0.08696661069 0)
(11.99922651 -0.08584765408 0)
(12.08574895 -0.08469367378 0)
(12.16887146 -0.08350471788 0)
(12.24872762 -0.08227315386 0)
(12.32544577 -0.08099350323 0)
(12.39914922 -0.07965968264 0)
(12.46995643 -0.07826142055 0)
(12.53798119 -0.07678439663 0)
(12.60333283 -0.07521433483 0)
(12.6661164 -0.07352641011 0)
(12.72643281 -0.07168357375 0)
(12.784379 -0.06962380257 0)
(12.8400481 -0.0672339608 0)
(12.8935296 -0.06427064414 0)
(12.94490945 -0.06017585192 0)
(12.99427025 -0.05359310182 0)
(13.04169132 -0.04103256007 0)
(13.0872489 -0.01637319894 0)
(0.3720433253 -0.1371964832 0)
(0.8551266281 -0.1370302198 0)
(1.368086879 -0.1367197874 0)
(1.867666199 -0.1362948478 0)
(2.349819777 -0.1357831099 0)
(2.814006203 -0.1352090124 0)
(3.260467164 -0.134592741 0)
(3.689685784 -0.1339494271 0)
(4.10222835 -0.1332935281 0)
(4.49868673 -0.1326381372 0)
(4.879654308 -0.131994786 0)
(5.245715 -0.1313782593 0)
(5.597437985 -0.1308076713 0)
(5.935375186 -0.1303165076 0)
(6.260060147 -0.1299297344 0)
(6.572007663 -0.1293892871 0)
(6.871713827 -0.1282688584 0)
(7.159656311 -0.1270633063 0)
(7.436294796 -0.1259559441 0)
(7.702071466 -0.1249253758 0)
(7.957411557 -0.1239394976 0)
(8.202723915 -0.122976002 0)
(8.438401567 -0.1220213923 0)
(8.664822293 -0.1210719197 0)
(8.882349173 -0.1201214033 0)
(9.091331139 -0.1191680697 0)
(9.29210351 -0.1182106225 0)
(9.484988505 -0.1172488152 0)
(9.670295742 -0.1162797778 0)
(9.848322723 -0.1153038402 0)
(10.0193553 -0.1143211134 0)
(10.18366814 -0.1133309494 0)
(10.34152513 -0.1123297314 0)
(10.49317981 -0.1113194026 0)
(10.63887579 -0.1102996614 0)
(10.77884712 -0.1092662211 0)
(10.91331866 -0.1082214053 0)
(11.04250647 -0.1071632373 0)
(11.16661808 -0.1060885823 0)
(11.28585294 -0.104999258 0)
(11.40040261 -0.1038911757 0)
(11.51045117 -0.1027632329 0)
(11.61617546 -0.1016148719 0)
(11.71774536 -0.100440221 0)
(11.8153241 -0.09924179398 0)
(11.9090685 -0.09801090973 0)
(11.9991292 -0.09674985156 0)
(12.08565094 -0.09544932188 0)
(12.16877277 -0.09410937488 0)
(12.24862829 -0.09272140874 0)
(12.32534582 -0.09127924926 0)
(12.39904867 -0.08977604052 0)
(12.4698553 -0.08820020655 0)
(12.53787951 -0.08653560841 0)
(12.60323062 -0.08476615708 0)
(12.66601369 -0.08286387485 0)
(12.7263296 -0.08078700803 0)
(12.78427532 -0.07846565682 0)
(12.83994397 -0.0757723178 0)
(12.89342504 -0.07243267562 0)
(12.94480447 -0.06781786647 0)
(12.99416487 -0.06039914196 0)
(13.04158556 -0.04624347792 0)
(13.08714277 -0.01845250851 0)
(0.3720402585 -0.1529105927 0)
(0.8551195793 -0.152725286 0)
(1.368075602 -0.1523792975 0)
(1.867650804 -0.1519056865 0)
(2.349800407 -0.1513353355 0)
(2.813983007 -0.1506954824 0)
(3.260440288 -0.150008625 0)
(3.68965537 -0.1492916277 0)
(4.102194535 -0.1485606038 0)
(4.498649647 -0.1478301462 0)
(4.879614085 -0.1471131074 0)
(5.245671759 -0.1464259654 0)
(5.597391845 -0.1457900237 0)
(5.93532626 -0.1452426035 0)
(6.260008545 -0.1448115304 0)
(6.57195349 -0.1442091818 0)
(6.871657183 -0.1429604222 0)
(7.159597294 -0.1416167895 0)
(7.436233498 -0.140382593 0)
(7.702007977 -0.1392339863 0)
(7.957345964 -0.1381351883 0)
(8.202656299 -0.1370613365 0)
(8.438332009 -0.1359973884 0)
(8.664750868 -0.1349391659 0)
(8.882275955 -0.1338797799 0)
(9.091256199 -0.132817254 0)
(9.292026915 -0.1317501435 0)
(9.484910319 -0.1306781735 0)
(9.670216029 -0.1295981451 0)
(9.848241543 -0.1285104263 0)
(10.01927271 -0.1274151407 0)
(10.1835842 -0.126311566 0)
(10.34143988 -0.1251956712 0)
(10.49309331 -0.1240696221 0)
(10.63878809 -0.1229330826 0)
(10.77875827 -0.1217812748 0)
(10.91322871 -0.1206167887 0)
(11.04241544 -0.119437421 0)
(11.16652604 -0.1182396781 0)
(11.28575991 -0.1170255855 0)
(11.40030864 -0.1157905865 0)
(11.51035629 -0.1145334522 0)
(11.61607971 -0.1132535611 0)
(11.71764877 -0.1119443689 0)
(11.81522671 -0.1106086773 0)
(11.90897033 -0.109236811 0)
(11.99903029 -0.1078313146 0)
(12.08555132 -0.1063818258 0)
(12.16867247 -0.104888405 0)
(12.24852732 -0.103341465 0)
(12.32524422 -0.1017341245 0)
(12.39894646 -0.1000587424 0)
(12.46975251 -0.09830241669 0)
(12.53777616 -0.09644716004 0)
(12.60312674 -0.0944750406 0)
(12.66590928 -0.09235487618 0)
(12.7262247 -0.09004013071 0)
(12.78416994 -0.08745289829 0)
(12.83983813 -0.0844510716 0)
(12.89331876 -0.08072891594 0)
(12.94469777 -0.07558553919 0)
(12.99405776 -0.06731709429 0)
(13.04147806 -0.05154007926 0)
(13.08703489 -0.02056600831 0)
(0.3720371413 -0.1688830904 0)
(0.8551124145 -0.1686784272 0)
(1.368064139 -0.168296298 0)
(1.867635155 -0.1677732152 0)
(2.349780719 -0.1671432874 0)
(2.81395943 -0.1664365976 0)
(3.26041297 -0.1656779934 0)
(3.689624456 -0.1648861012 0)
(4.102160164 -0.1640787171 0)
(4.498611954 -0.1632719585 0)
(4.8795732 -0.1624800203 0)
(5.245627807 -0.1617211019 0)
(5.597344947 -0.1610187321 0)
(5.93527653 -0.1604141303 0)
(6.259956094 -0.1599380287 0)
(6.571898426 -0.1592727609 0)
(6.871599607 -0.1578935604 0)
(7.159537306 -0.1564095766 0)
(7.436171193 -0.1550464603 0)
(7.701943445 -0.1537778743 0)
(7.957279292 -0.1525642997 0)
(8.202587572 -0.1513782772 0)
(8.438261307 -0.1502031928 0)
(8.664678269 -0.1490344321 0)
(8.882201533 -0.1478643864 0)
(9.091180026 -0.1466908729 0)
(9.29194906 -0.1455122958 0)
(9.484830849 -0.1443283516 0)
(9.670135005 -0.1431355073 0)
(9.848159027 -0.1419341693 0)
(10.01918877 -0.140724474 0)
(10.18349887 -0.1395056238 0)
(10.34135323 -0.1382731666 0)
(10.49300539 -0.1370294944 0)
(10.63869895 -0.135774236 0)
(10.77866796 -0.1345021145 0)
(10.91313727 -0.1332159903 0)
(11.04232292 -0.13191343 0)
(11.16643248 -0.1305905751 0)
(11.28566535 -0.1292496627 0)
(11.40021312 -0.1278856601 0)
(11.51025985 -0.1264972101 0)
(11.61598238 -0.125083626 0)
(11.71755059 -0.1236376803 0)
(11.81512771 -0.1221624671 0)
(11.90887055 -0.1206473004 0)
(11.99892976 -0.119094991 0)
(12.08545006 -0.1174940937 0)
(12.16857051 -0.1158446754 0)
(12.24842469 -0.1141361476 0)
(12.32514095 -0.11236091 0)
(12.39884258 -0.1105105234 0)
(12.46964803 -0.1085707382 0)
(12.53767111 -0.106521688 0)
(12.60302114 -0.104343568 0)
(12.66580316 -0.1020019387 0)
(12.72611807 -0.09944540313 0)
(12.78406282 -0.09658791759 0)
(12.83973055 -0.09327253074 0)
(12.89321073 -0.08916157192 0)
(12.94458931 -0.08348093629 0)
(12.99394888 -0.07434879899 0)
(13.04136879 -0.05692377297 0)
(13.08692524 -0.02271426052 0)
(0.3720339728 -0.1851182249 0)
(0.8551051319 -0.184893887 0)
(1.368052488 -0.1844750228 0)
(1.86761925 -0.1839016549 0)
(2.349760707 -0.1832111706 0)
(2.813935465 -0.1824365449 0)
(3.260385202 -0.1816050144 0)
(3.689593033 -0.1807369956 0)
(4.102125228 -0.1798519958 0)
(4.498573642 -0.1789676815 0)
(4.879531643 -0.1780996125 0)
(5.245583133 -0.1772677375 0)
(5.597297277 -0.1764978471 0)
(5.935225982 -0.1758351235 0)
(6.259902781 -0.1753132532 0)
(6.571842456 -0.1745840316 0)
(6.871541085 -0.1730722452 0)
(7.159476332 -0.1714456025 0)
(7.436107862 -0.1699514466 0)
(7.701877851 -0.1685609083 0)
(7.957211523 -0.16723067 0)
(8.202517715 -0.1659306322 0)
(8.438189442 -0.1646425843 0)
(8.664604476 -0.1633614678 0)
(8.882125888 -0.1620789428 0)
(9.091102601 -0.1607926166 0)
(9.291869925 -0.1595007401 0)
(9.484750071 -0.1582029805 0)
(9.670052649 -0.1568954652 0)
(9.848075155 -0.1555786397 0)
(10.01910344 -0.1542526536 0)
(10.18341214 -0.1529166324 0)
(10.34126516 -0.1515656962 0)
(10.49291603 -0.1502024668 0)
(10.63860835 -0.1488265374 0)
(10.77857616 -0.1474321238 0)
(10.91304432 -0.1460223614 0)
(11.04222888 -0.1445945829 0)
(11.16633738 -0.1431445588 0)
(11.28556923 -0.1416747413 0)
(11.40011603 -0.1401796138 0)
(11.51016182 -0.1386576888 0)
(11.61588345 -0.1371082135 0)
(11.7174508 -0.1355232656 0)
(11.81502709 -0.1339062366 0)
(11.90876913 -0.1322454134 0)
(11.99882757 -0.1305438767 0)
(12.08534713 -0.1287890814 0)
(12.16846687 -0.1269811006 0)
(12.24832038 -0.1251083279 0)
(12.32503598 -0.1231624325 0)
(12.39873698 -0.1211341638 0)
(12.46954183 -0.1190079024 0)
(12.53756433 -0.1167618721 0)
(12.6029138 -0.1143743642 0)
(12.66569529 -0.1118076285 0)
(12.72600969 -0.1090053271 0)
(12.78395395 -0.1058731446 0)
(12.8396212 -0.1022390417 0)
(12.89310092 -0.09773288663 0)
(12.94447907 -0.09150615795 0)
(12.99383822 -0.08149612649 0)
(13.04125772 -0.06239599113 0)
(13.08681378 -0.0248978366 0)
(0.3720282725 -0.2016203149 0)
(0.85509203 -0.2013759787 0)
(1.368031526 -0.2009197755 0)
(1.867590634 -0.2002952955 0)
(2.349724704 -0.1995432591 0)
(2.81389235 -0.1986995806 0)
(3.260335247 -0.1977939244 0)
(3.689536501 -0.1968485274 0)
(4.102062375 -0.1958846356 0)
(4.498504715 -0.1949214905 0)
(4.87945688 -0.1939760387 0)
(5.24550276 -0.1930700074 0)
(5.597211515 -0.1922314863 0)
(5.935135043 -0.1915096851 0)
(6.259806867 -0.1909412935 0)
(6.571741763 -0.1901470665 0)
(6.8714358 -0.1885005142 0)
(7.159366635 -0.1867288668 0)
(7.435993927 -0.1851015166 0)
(7.701759843 -0.1835870209 0)
(7.957089604 -0.1821382004 0)
(8.202392036 -0.1807222727 0)
(8.438060153 -0.1793194036 0)
(8.664471718 -0.1779240839 0)
(8.881989796 -0.1765272301 0)
(9.090963308 -0.1751262363 0)
(9.291727556 -0.1737191973 0)
(9.484604746 -0.1723057509 0)
(9.669904485 -0.1708816791 0)
(9.847924264 -0.1694474671 0)
(10.01894993 -0.1680032779 0)
(10.18325611 -0.1665481591 0)
(10.34110671 -0.1650767957 0)
(10.49275526 -0.1635920432 0)
(10.63844535 -0.1620934587 0)
(10.77841101 -0.1605747421 0)
(10.91287712 -0.1590393085 0)
(11.04205969 -0.1574842528 0)
(11.16616629 -0.1559049685 0)
(11.28539631 -0.1543041263 0)
(11.39994135 -0.1526757179 0)
(11.50998546 -0.1510181231 0)
(11.61570547 -0.1493305222 0)
(11.71727127 -0.1476042864 0)
(11.81484606 -0.1458431098 0)
(11.90858666 -0.1440342349 0)
(11.99864372 -0.1421810173 0)
(12.08516196 -0.1402697933 0)
(12.16828043 -0.1383006427 0)
(12.24813271 -0.1362609245 0)
(12.32484714 -0.1341415651 0)
(12.39854701 -0.1319324894 0)
(12.46935078 -0.1296166856 0)
(12.53737223 -0.1271704363 0)
(12.6027207 -0.1245700975 0)
(12.66550123 -0.121774554 0)
(12.7258147 -0.1187224455 0)
(12.78375807 -0.1153110493 0)
(12.83942447 -0.1113529897 0)
(12.89290337 -0.1064451401 0)
(12.94428073 -0.09966333888 0)
(12.99363913 -0.08876097799 0)
(13.0410579 -0.06795818935 0)
(13.08661327 -0.02711731737 0)
(0.3720218334 -0.2183937499 0)
(0.8550772299 -0.2181290866 0)
(1.368007848 -0.2176349304 0)
(1.867558309 -0.2169584979 0)
(2.349684034 -0.2161438972 0)
(2.813843646 -0.2152300304 0)
(3.260278816 -0.2142490298 0)
(3.689472642 -0.2132249823 0)
(4.101991376 -0.2121809012 0)
(4.498426854 -0.2111376289 0)
(4.879372425 -0.210113522 0)
(5.24541197 -0.2091321151 0)
(5.597114637 -0.2082238348 0)
(5.935032317 -0.2074419847 0)
(6.259698521 -0.2068263068 0)
(6.571628017 -0.2059660055 0)
(6.871316867 -0.2041824713 0)
(7.159242719 -0.2022634349 0)
(7.435865223 -0.2005007002 0)
(7.701626539 -0.1988602088 0)
(7.95695188 -0.1972908563 0)
(8.202250067 -0.1957571331 0)
(8.437914105 -0.1942375549 0)
(8.664321751 -0.1927261541 0)
(8.881836065 -0.1912130916 0)
(9.090805959 -0.1896955447 0)
(9.291566732 -0.1881714496 0)
(9.484440584 -0.1866404141 0)
(9.669737116 -0.1850978693 0)
(9.847753814 -0.1835443406 0)
(10.01877651 -0.1819800047 0)
(10.18307986 -0.1804038299 0)
(10.34092773 -0.1788100591 0)
(10.49257365 -0.1772017854 0)
(10.63826121 -0.1755785288 0)
(10.77822446 -0.1739334654 0)
(10.91268823 -0.1722702942 0)
(11.04186857 -0.1705858685 0)
(11.16597302 -0.1688751984 0)
(11.28520098 -0.1671411771 0)
(11.39974404 -0.1653772962 0)
(11.50978625 -0.1635818009 0)
(11.61550442 -0.161753803 0)
(11.71706846 -0.1598839563 0)
(11.81464157 -0.1579762617 0)
(11.90838055 -0.1560169008 0)
(11.99843605 -0.1540095081 0)
(12.08495279 -0.1519392834 0)
(12.16806982 -0.1498063129 0)
(12.24792072 -0.147596904 0)
(12.32463382 -0.1453012284 0)
(12.39833241 -0.1429083726 0)
(12.46913495 -0.1403999097 0)
(12.53715523 -0.1377501492 0)
(12.60250257 -0.1349334799 0)
(12.66528201 -0.1319053663 0)
(12.72559444 -0.1285993432 0)
(12.78353681 -0.1249041421 0)
(12.83920225 -0.1206167989 0)
(12.89268022 -0.1153006497 0)